
                                 *****************
                                 * O   R   C   A *
                                 *****************

                                            #,                                       
                                            ###                                      
                                            ####                                     
                                            #####                                    
                                            ######                                   
                                           ########,                                 
                                     ,,################,,,,,                         
                               ,,#################################,,                 
                          ,,##########################################,,             
                       ,#########################################, ''#####,          
                    ,#############################################,,   '####,        
                  ,##################################################,,,,####,       
                ,###########''''           ''''###############################       
              ,#####''   ,,,,##########,,,,          '''####'''          '####       
            ,##' ,,,,###########################,,,                        '##       
           ' ,,###''''                  '''############,,,                           
         ,,##''                                '''############,,,,        ,,,,,,###''
      ,#''                                            '''#######################'''  
     '                                                          ''''####''''         
             ,#######,   #######,   ,#######,      ##                                
            ,#'     '#,  ##    ##  ,#'     '#,    #''#        ######   ,####,        
            ##       ##  ##   ,#'  ##            #'  '#       #        #'  '#        
            ##       ##  #######   ##           ,######,      #####,   #    #        
            '#,     ,#'  ##    ##  '#,     ,#' ,#      #,         ##   #,  ,#        
             '#######'   ##     ##  '#######'  #'      '#     #####' # '####'        



                  #######################################################
                  #                        -***-                        #
                  #          Department of theory and spectroscopy      #
                  #    Directorship and core code : Frank Neese         #
                  #        Max Planck Institute fuer Kohlenforschung    #
                  #                Kaiser Wilhelm Platz 1               #
                  #                 D-45470 Muelheim/Ruhr               #
                  #                      Germany                        #
                  #                                                     #
                  #                  All rights reserved                #
                  #                        -***-                        #
                  #######################################################


                         Program Version 5.0.3 -  RELEASE  -


 With contributions from (in alphabetic order):
   Daniel Aravena         : Magnetic Suceptibility
   Michael Atanasov       : Ab Initio Ligand Field Theory (pilot matlab implementation)
   Alexander A. Auer      : GIAO ZORA, VPT2 properties, NMR spectrum
   Ute Becker             : Parallelization
   Giovanni Bistoni       : ED, misc. LED, open-shell LED, HFLD
   Martin Brehm           : Molecular dynamics
   Dmytro Bykov           : SCF Hessian
   Vijay G. Chilkuri      : MRCI spin determinant printing, contributions to CSF-ICE
   Dipayan Datta          : RHF DLPNO-CCSD density
   Achintya Kumar Dutta   : EOM-CC, STEOM-CC
   Dmitry Ganyushin       : Spin-Orbit,Spin-Spin,Magnetic field MRCI
   Miquel Garcia          : C-PCM and meta-GGA Hessian, CC/C-PCM, Gaussian charge scheme
   Yang Guo               : DLPNO-NEVPT2, F12-NEVPT2, CIM, IAO-localization
   Andreas Hansen         : Spin unrestricted coupled pair/coupled cluster methods
   Benjamin Helmich-Paris : MC-RPA, TRAH-SCF, COSX integrals
   Lee Huntington         : MR-EOM, pCC
   Robert Izsak           : Overlap fitted RIJCOSX, COSX-SCS-MP3, EOM
   Marcus Kettner         : VPT2
   Christian Kollmar      : KDIIS, OOCD, Brueckner-CCSD(T), CCSD density, CASPT2, CASPT2-K
   Simone Kossmann        : Meta GGA functionals, TD-DFT gradient, OOMP2, MP2 Hessian
   Martin Krupicka        : Initial AUTO-CI
   Lucas Lang             : DCDCAS
   Marvin Lechner         : AUTO-CI (C++ implementation), FIC-MRCC
   Dagmar Lenk            : GEPOL surface, SMD
   Dimitrios Liakos       : Extrapolation schemes; Compound Job, initial MDCI parallelization
   Dimitrios Manganas     : Further ROCIS development; embedding schemes
   Dimitrios Pantazis     : SARC Basis sets
   Anastasios Papadopoulos: AUTO-CI, single reference methods and gradients
   Taras Petrenko         : DFT Hessian,TD-DFT gradient, ASA, ECA, R-Raman, ABS, FL, XAS/XES, NRVS
   Peter Pinski           : DLPNO-MP2, DLPNO-MP2 Gradient
   Christoph Reimann      : Effective Core Potentials
   Marius Retegan         : Local ZFS, SOC
   Christoph Riplinger    : Optimizer, TS searches, QM/MM, DLPNO-CCSD(T), (RO)-DLPNO pert. Triples
   Tobias Risthaus        : Range-separated hybrids, TD-DFT gradient, RPA, STAB
   Michael Roemelt        : Original ROCIS implementation
   Masaaki Saitow         : Open-shell DLPNO-CCSD energy and density
   Barbara Sandhoefer     : DKH picture change effects
   Avijit Sen             : IP-ROCIS
   Kantharuban Sivalingam : CASSCF convergence, NEVPT2, FIC-MRCI
   Bernardo de Souza      : ESD, SOC TD-DFT
   Georgi Stoychev        : AutoAux, RI-MP2 NMR, DLPNO-MP2 response
   Willem Van den Heuvel  : Paramagnetic NMR
   Boris Wezisla          : Elementary symmetry handling
   Frank Wennmohs         : Technical directorship


 We gratefully acknowledge several colleagues who have allowed us to
 interface, adapt or use parts of their codes:
   Stefan Grimme, W. Hujo, H. Kruse, P. Pracht,  : VdW corrections, initial TS optimization,
                  C. Bannwarth, S. Ehlert          DFT functionals, gCP, sTDA/sTD-DF
   Ed Valeev, F. Pavosevic, A. Kumar             : LibInt (2-el integral package), F12 methods
   Garnet Chan, S. Sharma, J. Yang, R. Olivares  : DMRG
   Ulf Ekstrom                                   : XCFun DFT Library
   Mihaly Kallay                                 : mrcc  (arbitrary order and MRCC methods)
   Jiri Pittner, Ondrej Demel                    : Mk-CCSD
   Frank Weinhold                                : gennbo (NPA and NBO analysis)
   Christopher J. Cramer and Donald G. Truhlar   : smd solvation model
   Lars Goerigk                                  : TD-DFT with DH, B97 family of functionals
   V. Asgeirsson, H. Jonsson                     : NEB implementation
   FAccTs GmbH                                   : IRC, NEB, NEB-TS, DLPNO-Multilevel, CI-OPT
                                                   MM, QMMM, 2- and 3-layer-ONIOM, Crystal-QMMM,
                                                   LR-CPCM, SF, NACMEs, symmetry and pop. for TD-DFT,
                                                   nearIR, NL-DFT gradient (VV10), updates on ESD,
                                                   ML-optimized integration grids
   S Lehtola, MJT Oliveira, MAL Marques          : LibXC Library
   Liviu Ungur et al                             : ANISO software


 Your calculation uses the libint2 library for the computation of 2-el integrals
 For citations please refer to: http://libint.valeyev.net

 Your ORCA version has been built with support for libXC version: 5.1.0
 For citations please refer to: https://tddft.org/programs/libxc/

 This ORCA versions uses:
   CBLAS   interface :  Fast vector & matrix operations
   LAPACKE interface :  Fast linear algebra routines
   SCALAPACK package :  Parallel linear algebra routines
   Shared memory     :  Shared parallel matrices
   BLAS/LAPACK       :  OpenBLAS 0.3.15  USE64BITINT DYNAMIC_ARCH NO_AFFINITY Prescott SINGLE_THREADED
        Core in use  :  Prescott
   Copyright (c) 2011-2014, The OpenBLAS Project


================================================================================

----- Orbital basis set information -----
Your calculation utilizes the basis: def2-SVP
   F. Weigend and R. Ahlrichs, Phys. Chem. Chem. Phys. 7, 3297 (2005).

----- AuxJ basis set information -----
Your calculation utilizes the auxiliary basis: def2/J
   F. Weigend, Phys. Chem. Chem. Phys. 8, 1057 (2006).

================================================================================
                                        WARNINGS
                       Please study these warnings very carefully!
================================================================================

WARNING: Old DensityContainer found on disk!
         Will remove this file - 
         If you want to keep old densities, please start your calculation with a different basename. 


WARNING: Geometry Optimization
  ===> : Switching off AutoStart
         For restart on a previous wavefunction, please use MOREAD
WARNING: External Constant force #0 (31 - 36) = 0.0

INFO   : the flag for use of the SHARK integral package has been found!

================================================================================
                                       INPUT FILE
================================================================================
NAME = 2_0.0.inp
|  1> #Powered by MCPoly
|  2> 
|  3> ! B3LYP def2-svp OPT FREQ
|  4> %maxcore 15000
|  5> %PAL NPROCS 32 END
|  6> %geom
|  7> POTENTIALS
|  8> {C 31 36 0.000}
|  9> end
| 10> end
| 11> 
| 12> *xyz 0 1
| 13> C         -6.33738        2.26967       -0.81127
| 14> O         -7.52375        1.65599       -0.51874
| 15> C         -5.13747        1.30886       -0.78521
| 16> C         -5.30044       -0.19041       -0.42705
| 17> C         -4.21152        1.40612        0.46736
| 18> H         -4.56806        1.42183       -1.72229
| 19> C         -3.91331       -0.09830        0.24470
| 20> H         -5.36589       -0.87749       -1.27471
| 21> H         -6.11119       -0.41502        0.27564
| 22> H         -3.08299       -0.31326       -0.43779
| 23> H         -3.78977       -0.69697        1.15100
| 24> C         -3.09916        2.46709        0.41496
| 25> H         -4.79434        1.54735        1.39267
| 26> O         -6.25250        3.46689       -1.08021
| 27> O         -3.25829        3.64679        0.72342
| 28> O         -1.89566        1.95676        0.01770
| 29> C         -8.65339        2.53800       -0.54417
| 30> C         -9.93997        1.72719       -0.48023
| 31> H         -8.65560        3.13959       -1.46175
| 32> H         -8.60207        3.22120        0.31235
| 33> C         -0.80988        2.89451        0.03221
| 34> C          0.50193        2.13295        0.16524
| 35> H         -0.89697        3.60186        0.86588
| 36> H         -0.81906        3.46819       -0.90188
| 37> O        -11.04720        2.63029       -0.59642
| 38> H         -9.99940        1.18755        0.47227
| 39> H         -9.95208        0.99302       -1.29508
| 40> O          1.55621        3.07415        0.40229
| 41> H          0.70653        1.57095       -0.75354
| 42> H          0.42628        1.42061        0.99613
| 43> C        -12.25376        2.02723       -0.76891
| 44> C        -13.32096        3.06415       -0.94424
| 45> H        -13.33665        3.73214       -0.07932
| 46> H        -14.29522        2.57351       -1.02109
| 47> H        -13.13866        3.62891       -1.86216
| 48> C          2.72778        2.51347        0.80684
| 49> C          3.71769        3.58530        1.14577
| 50> H          3.85650        4.25022        0.28976
| 51> H          4.68040        3.12629        1.38753
| 52> H          3.36720        4.14669        2.01574
| 53> O        -12.44618        0.82076       -0.79584
| 54> O          2.94176        1.31444        0.90989
| 55> 
| 56> *
| 57> 
| 58>                          ****END OF INPUT****
================================================================================

                       *****************************
                       * Geometry Optimization Run *
                       *****************************

Geometry optimization settings:
Update method            Update   .... BFGS
Choice of coordinates    CoordSys .... Z-matrix Internals
Initial Hessian          InHess   .... Almoef's Model

Convergence Tolerances:
Energy Change            TolE     ....  5.0000e-06 Eh
Max. Gradient            TolMAXG  ....  3.0000e-04 Eh/bohr
RMS Gradient             TolRMSG  ....  1.0000e-04 Eh/bohr
Max. Displacement        TolMAXD  ....  4.0000e-03 bohr
RMS Displacement         TolRMSD  ....  2.0000e-03 bohr
Strict Convergence                ....  False
------------------------------------------------------------------------------
                        ORCA OPTIMIZATION COORDINATE SETUP
------------------------------------------------------------------------------

The optimization will be done in new redundant internal coordinates
Making redundant internal coordinates   ...  (new redundants) done
Evaluating the initial hessian          ...  (Almloef) done
Evaluating the coordinates              ...  done
Calculating the B-matrix                .... done
Calculating the G-matrix                .... done
Diagonalizing the G-matrix              .... done
Small eigenvalue found = 7.244e-04
Small eigenvalue found = 2.565e-03
Small eigenvalue found = 3.912e-03
Small eigenvalue found = 1.142e-02
Small eigenvalue found = 1.273e-02
Small eigenvalue found = 1.597e-02
Small eigenvalue found = 1.893e-02
Small eigenvalue found = 2.134e-02
Small eigenvalue found = 2.511e-02
The first mode is                       ....   96
The number of degrees of freedom        ....  120

    -----------------------------------------------------------------
                    Redundant Internal Coordinates


    -----------------------------------------------------------------
         Definition                    Initial Value    Approx d2E/dq
    -----------------------------------------------------------------
      1. B(O   1,C   0)                  1.3674         0.608148   
      2. B(C   2,C   0)                  1.5374         0.363547   
      3. B(C   3,C   2)                  1.5500         0.347050   
      4. B(C   4,C   2)                  1.5607         0.333736   
      5. B(H   5,C   2)                  1.1023         0.344166   
      6. B(C   6,C   4)                  1.5498         0.347405   
      7. B(C   6,C   3)                  1.5440         0.354878   
      8. B(H   7,C   3)                  1.0931         0.356009   
      9. B(H   8,C   3)                  1.0961         0.352059   
     10. B(H   9,C   6)                  1.0961         0.352122   
     11. B(H  10,C   6)                  1.0932         0.355915   
     12. B(C  11,C   4)                  1.5381         0.362624   
     13. B(H  12,C   4)                  1.1026         0.343756   
     14. B(O  13,C   0)                  1.2300         1.007315   
     15. B(O  14,C  11)                  1.2297         1.008379   
     16. B(O  15,C  11)                  1.3663         0.610594   
     17. B(C  16,O   1)                  1.4334         0.477102   
     18. B(C  17,C  16)                  1.5221         0.384575   
     19. B(H  18,C  16)                  1.0972         0.350688   
     20. B(H  19,C  16)                  1.0968         0.351185   
     21. B(C  20,O  15)                  1.4347         0.474768   
     22. B(C  21,C  20)                  1.5227         0.383775   
     23. B(H  22,C  20)                  1.0968         0.351237   
     24. B(H  23,C  20)                  1.0962         0.351954   
     25. B(O  24,C  17)                  1.4335         0.476874   
     26. B(H  25,C  17)                  1.0964         0.351787   
     27. B(H  26,C  17)                  1.0969         0.351120   
     28. B(O  27,C  21)                  1.4330         0.477787   
     29. B(H  28,C  21)                  1.0963         0.351869   
     30. B(H  29,C  21)                  1.0971         0.350887   
     31. B(C  30,O  24)                  1.3599         0.625116   
     32. B(C  31,C  30)                  1.4983         0.419736   
     33. B(H  32,C  31)                  1.0930         0.356216   
     34. B(H  33,C  31)                  1.0935         0.355455   
     35. B(H  34,C  31)                  1.0931         0.356084   
     36. B(C  35,O  27)                  1.3604         0.623954   
     37. B(C  36,C  35)                  1.4979         0.420377   
     38. B(H  37,C  36)                  1.0928         0.356458   
     39. B(H  38,C  36)                  1.0936         0.355376   
     40. B(H  39,C  36)                  1.0931         0.356033   
     41. B(O  40,C  30)                  1.2220         1.037253   
     42. B(O  41,C  35)                  1.2223         1.036071   
     43. A(C   2,C   0,O  13)          123.9281         0.427491   
     44. A(O   1,C   0,C   2)          113.1451         0.390957   
     45. A(O   1,C   0,O  13)          122.9226         0.466167   
     46. A(C   0,O   1,C  16)          113.8166         0.407475   
     47. A(C   0,C   2,C   4)          115.9578         0.354796   
     48. A(C   0,C   2,H   5)          108.9476         0.320491   
     49. A(C   0,C   2,C   3)          121.7585         0.357160   
     50. A(C   3,C   2,C   4)           86.4000         0.352017   
     51. A(C   4,C   2,H   5)          111.6791         0.316051   
     52. A(C   3,C   2,H   5)          110.4790         0.318070   
     53. A(H   7,C   3,H   8)          108.9067         0.289292   
     54. A(C   6,C   3,H   8)          113.4417         0.320414   
     55. A(C   6,C   3,H   7)          115.3835         0.320999   
     56. A(C   2,C   3,H   7)          115.7903         0.319831   
     57. A(C   2,C   3,C   6)           87.0405         0.355699   
     58. A(C   2,C   3,H   8)          115.0928         0.319249   
     59. A(C  11,C   4,H  12)          108.8141         0.320295   
     60. A(C   6,C   4,H  12)          110.2801         0.318061   
     61. A(C   6,C   4,C  11)          121.7055         0.357067   
     62. A(C   2,C   4,C  11)          116.4052         0.354643   
     63. A(C   2,C   4,C   6)           86.4661         0.352077   
     64. A(C   2,C   4,H  12)          111.5852         0.315990   
     65. A(C   3,C   6,H   9)          113.4511         0.320424   
     66. A(C   3,C   6,H  10)          115.4396         0.320985   
     67. A(C   3,C   6,C   4)           86.9932         0.355760   
     68. A(H   9,C   6,H  10)          108.8567         0.289288   
     69. A(C   4,C   6,H   9)          115.1885         0.319311   
     70. A(C   4,C   6,H  10)          115.7375         0.319871   
     71. A(O  14,C  11,O  15)          123.0425         0.466600   
     72. A(C   4,C  11,O  15)          112.9111         0.391057   
     73. A(C   4,C  11,O  14)          124.0291         0.427378   
     74. A(C  11,O  15,C  20)          114.8059         0.407411   
     75. A(C  17,C  16,H  19)          109.7888         0.324529   
     76. A(O   1,C  16,H  19)          109.4236         0.334273   
     77. A(C  17,C  16,H  18)          108.9957         0.324454   
     78. A(O   1,C  16,H  18)          110.7198         0.334194   
     79. A(H  18,C  16,H  19)          108.1576         0.288498   
     80. A(O   1,C  16,C  17)          109.7315         0.378478   
     81. A(H  25,C  17,H  26)          108.3824         0.288631   
     82. A(O  24,C  17,H  26)          110.6662         0.334236   
     83. A(C  16,C  17,H  26)          109.5526         0.324520   
     84. A(C  16,C  17,H  25)          110.1520         0.324621   
     85. A(C  16,C  17,O  24)          108.2927         0.378447   
     86. A(O  24,C  17,H  25)          109.7934         0.334341   
     87. A(H  22,C  20,H  23)          108.0297         0.288667   
     88. A(C  21,C  20,H  23)          110.0840         0.324535   
     89. A(O  15,C  20,H  23)          109.0921         0.334122   
     90. A(C  21,C  20,H  22)          108.9391         0.324426   
     91. A(O  15,C  20,H  22)          111.6615         0.334009   
     92. A(O  15,C  20,C  21)          109.0240         0.378021   
     93. A(H  28,C  21,H  29)          108.3457         0.288611   
     94. A(O  27,C  21,H  29)          110.6045         0.334305   
     95. A(C  20,C  21,H  29)          109.3610         0.324373   
     96. A(O  27,C  21,H  28)          109.7567         0.334460   
     97. A(C  20,C  21,H  28)          110.1183         0.324522   
     98. A(C  20,C  21,O  27)          108.6497         0.378436   
     99. A(C  17,O  24,C  30)          114.5952         0.409430   
    100. A(C  21,O  27,C  35)          114.3364         0.409434   
    101. A(O  24,C  30,C  31)          109.8716         0.402889   
    102. A(C  31,C  30,O  40)          124.6479         0.441009   
    103. A(O  24,C  30,O  40)          125.4742         0.471048   
    104. A(H  32,C  31,H  34)          110.5593         0.289834   
    105. A(C  30,C  31,H  34)          109.6976         0.329994   
    106. A(H  32,C  31,H  33)          108.4843         0.289754   
    107. A(C  30,C  31,H  33)          109.4085         0.329898   
    108. A(C  30,C  31,H  32)          109.9134         0.330014   
    109. A(H  33,C  31,H  34)          108.7473         0.289737   
    110. A(C  36,C  35,O  41)          124.5526         0.441040   
    111. A(O  27,C  35,O  41)          125.4600         0.470789   
    112. A(O  27,C  35,C  36)          109.9698         0.402865   
    113. A(H  38,C  36,H  39)          108.7769         0.289720   
    114. A(H  37,C  36,H  39)          110.5899         0.289859   
    115. A(C  35,C  36,H  39)          109.6142         0.330070   
    116. A(H  37,C  36,H  38)          108.4660         0.289775   
    117. A(C  35,C  36,H  38)          109.3575         0.329969   
    118. A(C  35,C  36,H  37)          110.0051         0.330135   
    119. D(C  16,O   1,C   0,C   2)   -179.7675         0.027061   
    120. D(C  16,O   1,C   0,O  13)     -0.4808         0.027061   
    121. D(H   5,C   2,C   0,O  13)    -50.1843         0.009923   
    122. D(C   4,C   2,C   0,O   1)   -103.9270         0.009923   
    123. D(H   5,C   2,C   0,O   1)    129.0940         0.009923   
    124. D(C   3,C   2,C   0,O   1)     -1.2637         0.009923   
    125. D(C   4,C   2,C   0,O  13)     76.7947         0.009923   
    126. D(C   3,C   2,C   0,O  13)    179.4580         0.009923   
    127. D(H   8,C   3,C   2,C   0)    -30.7804         0.009717   
    128. D(C   6,C   3,C   2,C   0)   -145.3407         0.009717   
    129. D(C   6,C   3,C   2,H   5)     84.9549         0.009717   
    130. D(H   7,C   3,C   2,C   0)     97.8032         0.009717   
    131. D(H   7,C   3,C   2,H   5)    -31.9013         0.009717   
    132. D(H   8,C   3,C   2,H   5)   -160.4849         0.009717   
    133. D(C   6,C   3,C   2,C   4)    -26.8603         0.009717   
    134. D(H   7,C   3,C   2,C   4)   -143.7164         0.009717   
    135. D(H   8,C   3,C   2,C   4)     87.7000         0.009717   
    136. D(H  12,C   4,C   2,H   5)    165.7168         0.009050   
    137. D(H  12,C   4,C   2,C   3)    -83.6595         0.009050   
    138. D(H  12,C   4,C   2,C   0)     40.1150         0.009050   
    139. D(C  11,C   4,C   2,H   5)     40.0086         0.009050   
    140. D(C  11,C   4,C   2,C   3)    150.6323         0.009050   
    141. D(C   6,C   4,C   2,H   5)    -83.8554         0.009050   
    142. D(C   6,C   4,C   2,C   0)    150.5428         0.009050   
    143. D(C  11,C   4,C   2,C   0)    -85.5931         0.009050   
    144. D(C   6,C   4,C   2,C   3)     26.7683         0.009050   
    145. D(H   9,C   6,C   3,C   2)    -89.1694         0.010125   
    146. D(C   4,C   6,C   3,H   8)    -89.0841         0.010125   
    147. D(C   4,C   6,C   3,H   7)    144.2853         0.010125   
    148. D(H   9,C   6,C   3,H   7)     28.0683         0.010125   
    149. D(C   4,C   6,C   3,C   2)     27.0476         0.010125   
    150. D(H  10,C   6,C   4,H  12)    -32.0265         0.009736   
    151. D(H  10,C   6,C   4,C   2)   -143.7498         0.009736   
    152. D(H   9,C   6,C   4,H  12)   -160.5788         0.009736   
    153. D(H   9,C   6,C   4,C  11)    -31.3521         0.009736   
    154. D(H   9,C   6,C   4,C   2)     87.6980         0.009736   
    155. D(C   3,C   6,C   4,H  12)     84.8586         0.009736   
    156. D(C   3,C   6,C   4,C  11)   -145.9147         0.009736   
    157. D(C   3,C   6,C   4,C   2)    -26.8646         0.009736   
    158. D(H  10,C   6,C   3,H   8)     28.0807         0.010125   
    159. D(H  10,C   6,C   3,H   7)    -98.5499         0.010125   
    160. D(H  10,C   6,C   4,C  11)     97.2002         0.009736   
    161. D(H  10,C   6,C   3,C   2)    144.2124         0.010125   
    162. D(H   9,C   6,C   3,H   8)    154.6989         0.010125   
    163. D(O  15,C  11,C   4,H  12)    136.4469         0.009877   
    164. D(O  15,C  11,C   4,C   6)      6.5897         0.009877   
    165. D(O  15,C  11,C   4,C   2)    -96.4619         0.009877   
    166. D(O  14,C  11,C   4,H  12)    -42.0794         0.009877   
    167. D(O  14,C  11,C   4,C   6)   -171.9365         0.009877   
    168. D(O  14,C  11,C   4,C   2)     85.0118         0.009877   
    169. D(C  20,O  15,C  11,O  14)      2.1406         0.027294   
    170. D(C  20,O  15,C  11,C   4)   -176.4024         0.027294   
    171. D(H  19,C  16,O   1,C   0)    -70.5441         0.017952   
    172. D(H  18,C  16,O   1,C   0)     48.5780         0.017952   
    173. D(C  17,C  16,O   1,C   0)    168.9351         0.017952   
    174. D(H  26,C  17,C  16,O   1)    -55.4564         0.011773   
    175. D(H  25,C  17,C  16,H  19)    -56.6245         0.011773   
    176. D(H  25,C  17,C  16,H  18)   -174.9268         0.011773   
    177. D(H  25,C  17,C  16,O   1)     63.6747         0.011773   
    178. D(O  24,C  17,C  16,H  19)     63.4567         0.011773   
    179. D(O  24,C  17,C  16,H  18)    -54.8457         0.011773   
    180. D(H  26,C  17,C  16,H  18)     65.9421         0.011773   
    181. D(O  24,C  17,C  16,O   1)   -176.2441         0.011773   
    182. D(H  26,C  17,C  16,H  19)   -175.7556         0.011773   
    183. D(H  23,C  20,O  15,C  11)    -83.8217         0.017774   
    184. D(H  22,C  20,O  15,C  11)     35.5112         0.017774   
    185. D(C  21,C  20,O  15,C  11)    155.9317         0.017774   
    186. D(H  29,C  21,C  20,H  23)   -169.3254         0.011727   
    187. D(H  29,C  21,C  20,O  15)    -49.6917         0.011727   
    188. D(H  28,C  21,C  20,H  23)    -50.3777         0.011727   
    189. D(H  28,C  21,C  20,H  22)   -168.6637         0.011727   
    190. D(H  28,C  21,C  20,O  15)     69.2561         0.011727   
    191. D(O  27,C  21,C  20,H  23)     69.8590         0.011727   
    192. D(H  29,C  21,C  20,H  22)     72.3886         0.011727   
    193. D(O  27,C  21,C  20,H  22)    -48.4270         0.011727   
    194. D(O  27,C  21,C  20,O  15)   -170.5073         0.011727   
    195. D(C  30,O  24,C  17,H  26)     49.9222         0.017935   
    196. D(C  30,O  24,C  17,H  25)    -69.6789         0.017935   
    197. D(C  30,O  24,C  17,C  16)    170.0161         0.017935   
    198. D(C  35,O  27,C  21,H  29)     47.2897         0.018005   
    199. D(C  35,O  27,C  21,H  28)    -72.2039         0.018005   
    200. D(C  35,O  27,C  21,C  20)    167.3354         0.018005   
    201. D(O  40,C  30,O  24,C  17)      1.8652         0.028704   
    202. D(C  31,C  30,O  24,C  17)   -177.2515         0.028704   
    203. D(H  34,C  31,C  30,O  40)   -114.9110         0.013028   
    204. D(H  34,C  31,C  30,O  24)     64.2146         0.013028   
    205. D(H  33,C  31,C  30,O  40)      4.3029         0.013028   
    206. D(H  33,C  31,C  30,O  24)   -176.5716         0.013028   
    207. D(H  32,C  31,C  30,O  40)    123.3255         0.013028   
    208. D(H  32,C  31,C  30,O  24)    -57.5489         0.013028   
    209. D(O  41,C  35,O  27,C  21)      3.6887         0.028590   
    210. D(C  36,C  35,O  27,C  21)   -174.8361         0.028590   
    211. D(H  39,C  36,C  35,O  41)   -112.9440         0.013067   
    212. D(H  39,C  36,C  35,O  27)     65.5970         0.013067   
    213. D(H  38,C  36,C  35,O  41)      6.2249         0.013067   
    214. D(H  38,C  36,C  35,O  27)   -175.2341         0.013067   
    215. D(H  37,C  36,C  35,O  41)    125.2494         0.013067   
    216. D(H  37,C  36,C  35,O  27)    -56.2096         0.013067   
    -----------------------------------------------------------------

Number of atoms                         .... 42
Number of degrees of freedom            .... 216

         *************************************************************
         *                GEOMETRY OPTIMIZATION CYCLE   1            *
         *************************************************************
---------------------------------
CARTESIAN COORDINATES (ANGSTROEM)
---------------------------------
  C     -6.337380    2.269670   -0.811270
  O     -7.523750    1.655990   -0.518740
  C     -5.137470    1.308860   -0.785210
  C     -5.300440   -0.190410   -0.427050
  C     -4.211520    1.406120    0.467360
  H     -4.568060    1.421830   -1.722290
  C     -3.913310   -0.098300    0.244700
  H     -5.365890   -0.877490   -1.274710
  H     -6.111190   -0.415020    0.275640
  H     -3.082990   -0.313260   -0.437790
  H     -3.789770   -0.696970    1.151000
  C     -3.099160    2.467090    0.414960
  H     -4.794340    1.547350    1.392670
  O     -6.252500    3.466890   -1.080210
  O     -3.258290    3.646790    0.723420
  O     -1.895660    1.956760    0.017700
  C     -8.653390    2.538000   -0.544170
  C     -9.939970    1.727190   -0.480230
  H     -8.655600    3.139590   -1.461750
  H     -8.602070    3.221200    0.312350
  C     -0.809880    2.894510    0.032210
  C      0.501930    2.132950    0.165240
  H     -0.896970    3.601860    0.865880
  H     -0.819060    3.468190   -0.901880
  O    -11.047200    2.630290   -0.596420
  H     -9.999400    1.187550    0.472270
  H     -9.952080    0.993020   -1.295080
  O      1.556210    3.074150    0.402290
  H      0.706530    1.570950   -0.753540
  H      0.426280    1.420610    0.996130
  C    -12.253760    2.027230   -0.768910
  C    -13.320960    3.064150   -0.944240
  H    -13.336650    3.732140   -0.079320
  H    -14.295220    2.573510   -1.021090
  H    -13.138660    3.628910   -1.862160
  C      2.727780    2.513470    0.806840
  C      3.717690    3.585300    1.145770
  H      3.856500    4.250220    0.289760
  H      4.680400    3.126290    1.387530
  H      3.367200    4.146690    2.015740
  O    -12.446180    0.820760   -0.795840
  O      2.941760    1.314440    0.909890

----------------------------
CARTESIAN COORDINATES (A.U.)
----------------------------
  NO LB      ZA    FRAG     MASS         X           Y           Z
   0 C     6.0000    0    12.011  -11.975913    4.289055   -1.533078
   1 O     8.0000    0    15.999  -14.217827    3.129368   -0.980277
   2 C     6.0000    0    12.011   -9.708411    2.473387   -1.483832
   3 C     6.0000    0    12.011  -10.016380   -0.359823   -0.807008
   4 C     6.0000    0    12.011   -7.958619    2.657182    0.883182
   5 H     1.0000    0     1.008   -8.632382    2.686869   -3.254656
   6 C     6.0000    0    12.011   -7.395084   -0.185760    0.462416
   7 H     1.0000    0     1.008  -10.140063   -1.658216   -2.408853
   8 H     1.0000    0     1.008  -11.548475   -0.784274    0.520884
   9 H     1.0000    0     1.008   -5.826007   -0.591976   -0.827303
  10 H     1.0000    0     1.008   -7.161627   -1.317082    2.175075
  11 C     6.0000    0    12.011   -5.856564    4.662124    0.784161
  12 H     1.0000    0     1.008   -9.059990    2.924068    2.631765
  13 O     8.0000    0    15.999  -11.815513    6.551473   -2.041301
  14 O     8.0000    0    15.999   -6.157276    6.891434    1.367066
  15 O     8.0000    0    15.999   -3.582278    3.697741    0.033448
  16 C     6.0000    0    12.011  -16.352537    4.796125   -1.028332
  17 C     6.0000    0    12.011  -18.783821    3.263916   -0.907503
  18 H     1.0000    0     1.008  -16.356714    5.932965   -2.762307
  19 H     1.0000    0     1.008  -16.255556    6.087186    0.590256
  20 C     6.0000    0    12.011   -1.530451    5.469831    0.060868
  21 C     6.0000    0    12.011    0.948510    4.030691    0.312258
  22 H     1.0000    0     1.008   -1.695028    6.806529    1.636276
  23 H     1.0000    0     1.008   -1.547799    6.553929   -1.704306
  24 O     8.0000    0    15.999  -20.876183    4.970528   -1.127070
  25 H     1.0000    0     1.008  -18.896128    2.244144    0.892461
  26 H     1.0000    0     1.008  -18.806706    1.876536   -2.447347
  27 O     8.0000    0    15.999    2.940811    5.809302    0.760218
  28 H     1.0000    0     1.008    1.335148    2.968665   -1.423984
  29 H     1.0000    0     1.008    0.805552    2.684564    1.882413
  30 C     6.0000    0    12.011  -23.156251    3.830910   -1.453029
  31 C     6.0000    0    12.011  -25.172966    5.790404   -1.784355
  32 H     1.0000    0     1.008  -25.202616    7.052722   -0.149893
  33 H     1.0000    0     1.008  -27.014051    4.863229   -1.929580
  34 H     1.0000    0     1.008  -24.828469    6.857646   -3.518972
  35 C     6.0000    0    12.011    5.154757    4.749770    1.524707
  36 C     6.0000    0    12.011    7.025416    6.775235    2.165192
  37 H     1.0000    0     1.008    7.287729    8.031752    0.547567
  38 H     1.0000    0     1.008    8.844674    5.907832    2.622052
  39 H     1.0000    0     1.008    6.363086    7.836108    3.809197
  40 O     8.0000    0    15.999  -23.519872    1.551012   -1.503920
  41 O     8.0000    0    15.999    5.559121    2.483932    1.719443

--------------------------------
INTERNAL COORDINATES (ANGSTROEM)
--------------------------------
 C      0   0   0     0.000000000000     0.00000000     0.00000000
 O      1   0   0     1.367351717811     0.00000000     0.00000000
 C      1   2   0     1.537406578560   113.14512205     0.00000000
 C      3   1   2     1.550047850681   121.75853509   358.73633099
 C      3   1   2     1.560696804315   115.95780029   256.07302388
 H      3   1   2     1.102319779102   108.94755109   129.09404476
 C      4   3   1     1.543976020377    87.04046605   214.65933177
 H      4   3   1     1.093110289266   115.79034684    97.80317728
 H      4   3   1     1.096147093551   115.09275622   329.21956073
 H      7   4   3     1.096098400738   113.45114154   270.83060883
 H      7   4   3     1.093182322625   115.43956052   144.21237000
 C      5   3   1     1.538098784376   116.40521402   274.40689277
 H      5   3   1     1.102643941352   111.58519300    40.11502577
 O      1   2   3     1.229987425302   122.92262253   179.28667622
 O     12   5   3     1.229699970928   124.02907902    85.01183418
 O     12   5   3     1.366259296949   112.91111569   263.53808916
 C      2   1   3     1.433413706716   113.81658565   180.23252594
 C     17   2   1     1.522100284508   109.73150791   168.93510061
 H     17   2   1     1.097209400525   110.71984863    48.57804228
 H     17   2   1     1.096823820310   109.42358202   289.45594144
 C     16  12   5     1.434748692629   114.80591847   183.59757031
 C     21  16  12     1.522667426131   109.02395507   155.93167837
 H     21  16  12     1.096783642976   111.66146995    35.51115077
 H     21  16  12     1.096228599746   109.09209317   276.17826794
 O     18  17   2     1.433543860159   108.29274055   183.75587622
 H     18  17   2     1.096357379918   110.15200698    63.67474812
 H     18  17   2     1.096874087350   109.55255452   304.54361085
 O     22  21  16     1.433023538153   108.64972429   189.49271345
 H     22  21  16     1.096294599275   110.11825159    69.25605634
 H     22  21  16     1.097054871098   109.36095133   310.30830651
 C     25  18  17     1.359860727170   114.59519837   170.01605923
 C     31  25  18     1.498285531966   109.87155886   182.74853518
 H     32  31  25     1.092951701861   109.91340886   302.45109100
 H     32  31  25     1.093533757915   109.40847493   183.42840776
 H     32  31  25     1.093052731573   109.69764669    64.21457193
 C     28  22  21     1.360367240785   114.33636607   167.33543325
 C     36  28  22     1.497870121840   109.96980518   185.16392896
 H     37  36  28     1.092767103550   110.00508994   303.79041554
 H     37  36  28     1.093594358892   109.35753228   184.76588544
 H     37  36  28     1.093091841109   109.61418830    65.59700376
 O     31  25  18     1.222014951709   125.47418672     1.86518978
 O     36  28  22     1.222325522846   125.45996898     3.68868372

---------------------------
INTERNAL COORDINATES (A.U.)
---------------------------
 C      0   0   0     0.000000000000     0.00000000     0.00000000
 O      1   0   0     2.583920275409     0.00000000     0.00000000
 C      1   2   0     2.905277389968   113.14512205     0.00000000
 C      3   1   2     2.929165932260   121.75853509   358.73633099
 C      3   1   2     2.949289538242   115.95780029   256.07302388
 H      3   1   2     2.083082494508   108.94755109   129.09404476
 C      4   3   1     2.917691835855    87.04046605   214.65933177
 H      4   3   1     2.065679080885   115.79034684    97.80317728
 H      4   3   1     2.071417809305   115.09275622   329.21956073
 H      7   4   3     2.071325793224   113.45114154   270.83060883
 H      7   4   3     2.065815204205   115.43956052   144.21237000
 C      5   3   1     2.906585469388   116.40521402   274.40689277
 H      5   3   1     2.083695072383   111.58519300    40.11502577
 O      1   2   3     2.324339381987   122.92262253   179.28667622
 O     12   5   3     2.323796171945   124.02907902    85.01183418
 O     12   5   3     2.581855899158   112.91111569   263.53808916
 C      2   1   3     2.708759342301   113.81658565   180.23252594
 C     17   2   1     2.876352686084   109.73150791   168.93510061
 H     17   2   1     2.073425278556   110.71984863    48.57804228
 H     17   2   1     2.072696637548   109.42358202   289.45594144
 C     16  12   5     2.711282100070   114.80591847   183.59757031
 C     21  16  12     2.877424428430   109.02395507   155.93167837
 H     21  16  12     2.072620713389   111.66146995    35.51115077
 H     21  16  12     2.071571833691   109.09209317   276.17826794
 O     18  17   2     2.709005296665   108.29274055   183.75587622
 H     18  17   2     2.071815192948   110.15200698    63.67474812
 H     18  17   2     2.072791628486   109.55255452   304.54361085
 O     22  21  16     2.708022030572   108.64972429   189.49271345
 H     22  21  16     2.071696554727   110.11825159    69.25605634
 H     22  21  16     2.073133260260   109.36095133   310.30830651
 C     25  18  17     2.569764354627   114.59519837   170.01605923
 C     31  25  18     2.831349325833   109.87155886   182.74853518
 H     32  31  25     2.065379394120   109.91340886   302.45109100
 H     32  31  25     2.066479320657   109.40847493   183.42840776
 H     32  31  25     2.065570312608   109.69764669    64.21457193
 C     28  22  21     2.570721526641   114.33636607   167.33543325
 C     36  28  22     2.830564314460   109.96980518   185.16392896
 H     37  36  28     2.065030553867   110.00508994   303.79041554
 H     37  36  28     2.066593839907   109.35753228   184.76588544
 H     37  36  28     2.065644218921   109.61418830    65.59700376
 O     31  25  18     2.309273590287   125.47418672     1.86518978
 O     36  28  22     2.309860484680   125.45996898     3.68868372

---------------------
BASIS SET INFORMATION
---------------------
There are 3 groups of distinct atoms

 Group   1 Type C   : 7s4p1d contracted to 3s2p1d pattern {511/31/1}
 Group   2 Type O   : 7s4p1d contracted to 3s2p1d pattern {511/31/1}
 Group   3 Type H   : 4s1p contracted to 2s1p pattern {31/1}

Atom   0C    basis set group =>   1
Atom   1O    basis set group =>   2
Atom   2C    basis set group =>   1
Atom   3C    basis set group =>   1
Atom   4C    basis set group =>   1
Atom   5H    basis set group =>   3
Atom   6C    basis set group =>   1
Atom   7H    basis set group =>   3
Atom   8H    basis set group =>   3
Atom   9H    basis set group =>   3
Atom  10H    basis set group =>   3
Atom  11C    basis set group =>   1
Atom  12H    basis set group =>   3
Atom  13O    basis set group =>   2
Atom  14O    basis set group =>   2
Atom  15O    basis set group =>   2
Atom  16C    basis set group =>   1
Atom  17C    basis set group =>   1
Atom  18H    basis set group =>   3
Atom  19H    basis set group =>   3
Atom  20C    basis set group =>   1
Atom  21C    basis set group =>   1
Atom  22H    basis set group =>   3
Atom  23H    basis set group =>   3
Atom  24O    basis set group =>   2
Atom  25H    basis set group =>   3
Atom  26H    basis set group =>   3
Atom  27O    basis set group =>   2
Atom  28H    basis set group =>   3
Atom  29H    basis set group =>   3
Atom  30C    basis set group =>   1
Atom  31C    basis set group =>   1
Atom  32H    basis set group =>   3
Atom  33H    basis set group =>   3
Atom  34H    basis set group =>   3
Atom  35C    basis set group =>   1
Atom  36C    basis set group =>   1
Atom  37H    basis set group =>   3
Atom  38H    basis set group =>   3
Atom  39H    basis set group =>   3
Atom  40O    basis set group =>   2
Atom  41O    basis set group =>   2
---------------------------------
AUXILIARY/J BASIS SET INFORMATION
---------------------------------
There are 3 groups of distinct atoms

 Group   1 Type C   : 12s5p4d2f1g contracted to 6s4p3d1f1g pattern {711111/2111/211/2/1}
 Group   2 Type O   : 12s5p4d2f1g contracted to 6s4p3d1f1g pattern {711111/2111/211/2/1}
 Group   3 Type H   : 5s2p1d contracted to 3s1p1d pattern {311/2/1}

Atom   0C    basis set group =>   1
Atom   1O    basis set group =>   2
Atom   2C    basis set group =>   1
Atom   3C    basis set group =>   1
Atom   4C    basis set group =>   1
Atom   5H    basis set group =>   3
Atom   6C    basis set group =>   1
Atom   7H    basis set group =>   3
Atom   8H    basis set group =>   3
Atom   9H    basis set group =>   3
Atom  10H    basis set group =>   3
Atom  11C    basis set group =>   1
Atom  12H    basis set group =>   3
Atom  13O    basis set group =>   2
Atom  14O    basis set group =>   2
Atom  15O    basis set group =>   2
Atom  16C    basis set group =>   1
Atom  17C    basis set group =>   1
Atom  18H    basis set group =>   3
Atom  19H    basis set group =>   3
Atom  20C    basis set group =>   1
Atom  21C    basis set group =>   1
Atom  22H    basis set group =>   3
Atom  23H    basis set group =>   3
Atom  24O    basis set group =>   2
Atom  25H    basis set group =>   3
Atom  26H    basis set group =>   3
Atom  27O    basis set group =>   2
Atom  28H    basis set group =>   3
Atom  29H    basis set group =>   3
Atom  30C    basis set group =>   1
Atom  31C    basis set group =>   1
Atom  32H    basis set group =>   3
Atom  33H    basis set group =>   3
Atom  34H    basis set group =>   3
Atom  35C    basis set group =>   1
Atom  36C    basis set group =>   1
Atom  37H    basis set group =>   3
Atom  38H    basis set group =>   3
Atom  39H    basis set group =>   3
Atom  40O    basis set group =>   2
Atom  41O    basis set group =>   2


           ************************************************************
           *        Program running with 32 parallel MPI-processes    *
           *              working on a common directory               *
           ************************************************************
------------------------------------------------------------------------------
                           ORCA GTO INTEGRAL CALCULATION
                           -- RI-GTO INTEGRALS CHOSEN --
------------------------------------------------------------------------------
------------------------------------------------------------------------------
                   ___                                                        
                  /   \      - P O W E R E D   B Y -                         
                 /     \                                                     
                 |  |  |   _    _      __       _____    __    __             
                 |  |  |  | |  | |    /  \     |  _  \  |  |  /  |          
                  \  \/   | |  | |   /    \    | | | |  |  | /  /          
                 / \  \   | |__| |  /  /\  \   | |_| |  |  |/  /          
                |  |  |   |  __  | /  /__\  \  |    /   |      \           
                |  |  |   | |  | | |   __   |  |    \   |  |\   \          
                \     /   | |  | | |  |  |  |  | |\  \  |  | \   \       
                 \___/    |_|  |_| |__|  |__|  |_| \__\ |__|  \__/        
                                                                              
                      - O R C A' S   B I G   F R I E N D -                    
                                      &                                       
                       - I N T E G R A L  F E E D E R -                       
                                                                              
 v1 FN, 2020, v2 2021                                                         
------------------------------------------------------------------------------


Reading SHARK input file 2_0.0.SHARKINP.tmp ... ok
----------------------
SHARK INTEGRAL PACKAGE
----------------------

Number of atoms                             ...     42
Number of basis functions                   ...    408
Number of shells                            ...    192
Maximum angular momentum                    ...      2
Integral batch strategy                     ... SHARK/LIBINT Hybrid
RI-J (if used) integral strategy            ... SPLIT-RIJ (Revised 2003 algorithm where possible)
Printlevel                                  ...      1
Contraction scheme used                     ... SEGMENTED contraction
Coulomb Range Separation                    ... NOT USED
Exchange Range Separation                   ... NOT USED
Finite Nucleus Model                        ... NOT USED
Auxiliary Coulomb fitting basis             ... AVAILABLE
   # of basis functions in Aux-J            ...   1298
   # of shells in Aux-J                     ...    430
   Maximum angular momentum in Aux-J        ...      4
Auxiliary J/K fitting basis                 ... NOT available
Auxiliary Correlation fitting basis         ... NOT available
Auxiliary 'external' fitting basis          ... NOT available
Integral threshold                          ...     2.500000e-11
Primitive cut-off                           ...     2.500000e-12
Primitive pair pre-selection threshold      ...     2.500000e-12

Calculating pre-screening integrals         ... done (  0.0 sec) Dimension = 192
Organizing shell pair data                  ... done (  0.0 sec)
Shell pair information
Total number of shell pairs                 ...     18528
Shell pairs after pre-screening             ...     10213
Total number of primitive shell pairs       ...     66776
Primitive shell pairs kept                  ...     24018
          la=0 lb=0:   3257 shell pairs
          la=1 lb=0:   3820 shell pairs
          la=1 lb=1:   1159 shell pairs
          la=2 lb=0:   1179 shell pairs
          la=2 lb=1:    686 shell pairs
          la=2 lb=2:    112 shell pairs

Calculating one electron integrals          ... done (  0.0 sec)
Calculating RI/J V-Matrix + Cholesky decomp.... done (  0.1 sec)
Calculating Nuclear repulsion               ... done (  0.0 sec) ENN=   1707.077662243807 Eh

SHARK setup successfully completed in   0.4 seconds

Maximum memory used throughout the entire GTOINT-calculation: 19.0 MB


           ************************************************************
           *        Program running with 32 parallel MPI-processes    *
           *              working on a common directory               *
           ************************************************************
-------------------------------------------------------------------------------
                                 ORCA SCF
-------------------------------------------------------------------------------

------------
SCF SETTINGS
------------
Hamiltonian:
 Density Functional     Method          .... DFT(GTOs)
 Exchange Functional    Exchange        .... B88
   X-Alpha parameter    XAlpha          ....  0.666667
   Becke's b parameter  XBeta           ....  0.004200
 Correlation Functional Correlation     .... LYP
 LDA part of GGA corr.  LDAOpt          .... VWN-5
 Gradients option       PostSCFGGA      .... off
 Hybrid DFT is turned on
   Fraction HF Exchange ScalHFX         ....  0.200000
   Scaling of DF-GGA-X  ScalDFX         ....  0.720000
   Scaling of DF-GGA-C  ScalDFC         ....  0.810000
   Scaling of DF-LDA-C  ScalLDAC        ....  1.000000
   Perturbative correction              ....  0.000000
   Density functional embedding theory  .... OFF
   NL short-range parameter             ....  4.800000
 RI-approximation to the Coulomb term is turned on
   Number of AuxJ basis functions       .... 1298
   RIJ-COSX (HFX calculated with COS-X)).... on


General Settings:
 Integral files         IntName         .... 2_0.0
 Hartree-Fock type      HFTyp           .... RHF
 Total Charge           Charge          ....    0
 Multiplicity           Mult            ....    1
 Number of Electrons    NEL             ....  168
 Basis Dimension        Dim             ....  408
 Nuclear Repulsion      ENuc            ....   1707.0776622438 Eh

Convergence Acceleration:
 DIIS                   CNVDIIS         .... on
   Start iteration      DIISMaxIt       ....    12
   Startup error        DIISStart       ....  0.200000
   # of expansion vecs  DIISMaxEq       ....     5
   Bias factor          DIISBfac        ....   1.050
   Max. coefficient     DIISMaxC        ....  10.000
 Trust-Rad. Augm. Hess. CNVTRAH         .... auto
   Auto Start mean grad. ratio tolernc. ....  1.125000
   Auto Start start iteration           ....    20
   Auto Start num. interpolation iter.  ....    10
   Max. Number of Micro iterations      ....    16
   Max. Number of Macro iterations      .... Maxiter - #DIIS iter
   Number of Davidson start vectors     ....     2
   Converg. threshold I  (grad. norm)   ....   1.000e-05
   Converg. threshold II (energy diff.) ....   1.000e-08
   Grad. Scal. Fac. for Micro threshold ....   0.100
   Minimum threshold for Micro iter.    ....   0.010
   NR start threshold (gradient norm)   ....   0.001
   Initial trust radius                 ....   0.400
   Minimum AH scaling param. (alpha)    ....   1.000
   Maximum AH scaling param. (alpha)    .... 1000.000
   Orbital update algorithm             .... Taylor
   White noise on init. David. guess    .... on
   Maximum white noise                  ....   0.010
   Quad. conv. algorithm                .... NR
 SOSCF                  CNVSOSCF        .... on
   Start iteration      SOSCFMaxIt      ....   150
   Startup grad/error   SOSCFStart      ....  0.003300
 Level Shifting         CNVShift        .... on
   Level shift para.    LevelShift      ....    0.2500
   Turn off err/grad.   ShiftErr        ....    0.0010
 Zerner damping         CNVZerner       .... off
 Static damping         CNVDamp         .... on
   Fraction old density DampFac         ....    0.7000
   Max. Damping (<1)    DampMax         ....    0.9800
   Min. Damping (>=0)   DampMin         ....    0.0000
   Turn off err/grad.   DampErr         ....    0.1000
 Fernandez-Rico         CNVRico         .... off

SCF Procedure:
 Maximum # iterations   MaxIter         ....   125
 SCF integral mode      SCFMode         .... Direct
   Integral package                     .... SHARK and LIBINT hybrid scheme
 Reset frequency        DirectResetFreq ....    20
 Integral Threshold     Thresh          ....  2.500e-11 Eh
 Primitive CutOff       TCut            ....  2.500e-12 Eh

Convergence Tolerance:
 Convergence Check Mode ConvCheckMode   .... Total+1el-Energy
 Convergence forced     ConvForced      .... 0
 Energy Change          TolE            ....  1.000e-08 Eh
 1-El. energy change                    ....  1.000e-05 Eh
 Orbital Gradient       TolG            ....  1.000e-05
 Orbital Rotation angle TolX            ....  1.000e-05
 DIIS Error             TolErr          ....  5.000e-07


Diagonalization of the overlap matrix:
Smallest eigenvalue                        ... 5.155e-04
Time for diagonalization                   ...    0.024 sec
Threshold for overlap eigenvalues          ... 1.000e-08
Number of eigenvalues below threshold      ... 0
Time for construction of square roots      ...    0.044 sec
Total time needed                          ...    0.070 sec

Time for model grid setup =    0.173 sec

------------------------------
INITIAL GUESS: MODEL POTENTIAL
------------------------------
Loading Hartree-Fock densities                     ... done
Calculating cut-offs                               ... done
Initializing the effective Hamiltonian             ... done
Setting up the integral package (SHARK)            ... done
Starting the Coulomb interaction                   ... done (   0.0 sec)
Reading the grid                                   ... done
Mapping shells                                     ... done
Starting the XC term evaluation                    ... done (   0.1 sec)
  promolecular density results
     # of electrons  =    167.987707425
     EX              =   -143.469169079
     EC              =     -5.786920067
     EX+EC           =   -149.256089146
Transforming the Hamiltonian                       ... done (   0.1 sec)
Diagonalizing the Hamiltonian                      ... done (   0.0 sec)
Back transforming the eigenvectors                 ... done (   0.0 sec)
Now organizing SCF variables                       ... done
                      ------------------
                      INITIAL GUESS DONE (   0.5 sec)
                      ------------------
-------------------
DFT GRID GENERATION
-------------------

General Integration Accuracy     IntAcc      ... 4.388
Radial Grid Type                 RadialGrid  ... OptM3 with GC (2021)
Angular Grid (max. ang.)         AngularGrid ... 4 (Lebedev-302)
Angular grid pruning method      GridPruning ... 4 (adaptive)
Weight generation scheme         WeightScheme... Becke
Basis function cutoff            BFCut       ... 1.0000e-11
Integration weight cutoff        WCut        ... 1.0000e-14
Angular grids for H and He will be reduced by one unit
Partially contracted basis set               ... off
Rotationally invariant grid construction     ... off

Total number of grid points                  ...   196547
Total number of batches                      ...     3096
Average number of points per batch           ...       63
Average number of grid points per atom       ...     4680
Time for grid setup =    0.672 sec

--------------------
COSX GRID GENERATION
--------------------

GRIDX 1
-------
General Integration Accuracy     IntAcc      ... 3.816
Radial Grid Type                 RadialGrid  ... OptM3 with GC (2021)
Angular Grid (max. ang.)         AngularGrid ... 1 (Lebedev-50)
Angular grid pruning method      GridPruning ... 4 (adaptive)
Weight generation scheme         WeightScheme... Becke
Basis function cutoff            BFCut       ... 1.0000e-11
Integration weight cutoff        WCut        ... 1.0000e-14
Angular grids for H and He will be reduced by one unit
Partially contracted basis set               ... on
Rotationally invariant grid construction     ... off

Total number of grid points                  ...    24997
Total number of batches                      ...      417
Average number of points per batch           ...       59
Average number of grid points per atom       ...      595
UseSFitting                                  ... on

GRIDX 2
-------
General Integration Accuracy     IntAcc      ... 4.020
Radial Grid Type                 RadialGrid  ... OptM3 with GC (2021)
Angular Grid (max. ang.)         AngularGrid ... 2 (Lebedev-110)
Angular grid pruning method      GridPruning ... 4 (adaptive)
Weight generation scheme         WeightScheme... Becke
Basis function cutoff            BFCut       ... 1.0000e-11
Integration weight cutoff        WCut        ... 1.0000e-14
Angular grids for H and He will be reduced by one unit
Partially contracted basis set               ... on
Rotationally invariant grid construction     ... off

Total number of grid points                  ...    54211
Total number of batches                      ...      873
Average number of points per batch           ...       62
Average number of grid points per atom       ...     1291
UseSFitting                                  ... on

GRIDX 3
-------
General Integration Accuracy     IntAcc      ... 4.338
Radial Grid Type                 RadialGrid  ... OptM3 with GC (2021)
Angular Grid (max. ang.)         AngularGrid ... 3 (Lebedev-194)
Angular grid pruning method      GridPruning ... 4 (adaptive)
Weight generation scheme         WeightScheme... Becke
Basis function cutoff            BFCut       ... 1.0000e-11
Integration weight cutoff        WCut        ... 1.0000e-14
Angular grids for H and He will be reduced by one unit
Partially contracted basis set               ... on
Rotationally invariant grid construction     ... off

Total number of grid points                  ...   118758
Total number of batches                      ...     1876
Average number of points per batch           ...       63
Average number of grid points per atom       ...     2828
UseSFitting                                  ... on

Time for X-Grid setup             =    0.995 sec

--------------
SCF ITERATIONS
--------------
ITER       Energy         Delta-E        Max-DP      RMS-DP      [F,P]     Damp
               ***  Starting incremental Fock matrix formation  ***
  0  -1145.1930508446   0.000000000000 0.10522839  0.00189633  0.2704828 0.7000
  1  -1145.5197160348  -0.326665190155 0.05980666  0.00113107  0.1024211 0.7000
                               ***Turning on DIIS***
  2  -1145.6277317920  -0.108015757167 0.07550746  0.00158045  0.0400299 0.0000
  3  -1145.8286174258  -0.200885633872 0.04140714  0.00079409  0.0513200 0.0000
  4  -1145.8596766975  -0.031059271661 0.01306864  0.00024780  0.0215857 0.0000
  5  -1145.8633622920  -0.003685594483 0.00307955  0.00006489  0.0035242 0.0000
                      *** Initiating the SOSCF procedure ***
                           *** Shutting down DIIS ***
                      *** Re-Reading the Fockian *** 
                      *** Removing any level shift *** 
ITER      Energy       Delta-E        Grad      Rot      Max-DP    RMS-DP
  6  -1145.86345890  -0.0000966122  0.000278  0.000278  0.001108  0.000023
               *** Restarting incremental Fock matrix formation ***
  7  -1145.86352287  -0.0000639618  0.000134  0.000265  0.000659  0.000016
  8  -1145.86352111   0.0000017585  0.000199  0.000215  0.000487  0.000008
  9  -1145.86352513  -0.0000040242  0.000043  0.000112  0.000222  0.000004
 10  -1145.86352485   0.0000002779  0.000073  0.000074  0.000130  0.000002
 11  -1145.86352527  -0.0000004126  0.000008  0.000018  0.000065  0.000001
 12  -1145.86352527  -0.0000000024  0.000014  0.000012  0.000039  0.000001
                  ***Gradient check signals convergence***
              ***Rediagonalizing the Fockian in SOSCF/NRSCF***

               *****************************************************
               *                     SUCCESS                       *
               *           SCF CONVERGED AFTER  13 CYCLES          *
               *****************************************************

Old exchange energy                            =    -29.050208180 Eh
New exchange energy                            =    -29.050278656 Eh
Exchange energy change after final integration =     -0.000070477 Eh
Total energy after final integration           =  -1145.863595764 Eh
Final COS-X integration done in                =     0.883 sec

----------------
TOTAL SCF ENERGY
----------------

Total Energy       :        -1145.86359576 Eh          -31180.53363 eV
SCF Energy         :        -1145.86359576 Eh          -31180.53363 eV
External Potential :            0.00000000 Eh               0.00000 eV

Components:
Nuclear Repulsion  :         1707.07766224 Eh           46451.94476 eV
External Potential :            0.00000000 Eh               0.00000 eV
Electronic Energy  :        -2852.94125801 Eh          -77632.47839 eV
One Electron Energy:        -4956.62485823 Eh         -134876.61939 eV
Two Electron Energy:         2103.68360023 Eh           57244.14100 eV
Max COSX asymmetry :            0.00000302 Eh               0.00008 eV

Virial components:
Potential Energy   :        -2281.55605158 Eh          -62084.29647 eV
Kinetic Energy     :         1135.69245582 Eh           30903.76284 eV
Virial Ratio       :            2.00895589


DFT components:
N(Alpha)           :       84.000014107852 electrons
N(Beta)            :       84.000014107852 electrons
N(Total)           :      168.000028215704 electrons
E(X)               :     -115.543024025030 Eh       
E(C)               :       -6.810228948432 Eh       
E(XC)              :     -122.353252973462 Eh       
DFET-embed. en.    :        0.000000000000 Eh       

---------------
SCF CONVERGENCE
---------------

  Last Energy change         ...   -1.8889e-08  Tolerance :   1.0000e-08
  Last MAX-Density change    ...    3.3168e-15  Tolerance :   1.0000e-07
  Last RMS-Density change    ...    4.1024e-17  Tolerance :   5.0000e-09
  Last Orbital Gradient      ...    2.3988e-06  Tolerance :   1.0000e-05
  Last Orbital Rotation      ...    7.6548e-06  Tolerance :   1.0000e-05

             **** THE GBW FILE WAS UPDATED (2_0.0.gbw) ****
             **** DENSITY 2_0.0.scfp WAS UPDATED ****
             **** ENERGY FILE WAS UPDATED (2_0.0.en.tmp) ****
             **** THE GBW FILE WAS UPDATED (2_0.0.gbw) ****
             **** DENSITY 2_0.0.scfp WAS UPDATED ****
----------------
ORBITAL ENERGIES
----------------

  NO   OCC          E(Eh)            E(eV) 
   0   2.0000     -19.190503      -522.2001 
   1   2.0000     -19.189665      -522.1773 
   2   2.0000     -19.186651      -522.0953 
   3   2.0000     -19.186378      -522.0879 
   4   2.0000     -19.127017      -520.4726 
   5   2.0000     -19.126034      -520.4459 
   6   2.0000     -19.125962      -520.4439 
   7   2.0000     -19.125916      -520.4426 
   8   2.0000     -10.321042      -280.8498 
   9   2.0000     -10.320534      -280.8360 
  10   2.0000     -10.319387      -280.8048 
  11   2.0000     -10.319259      -280.8013 
  12   2.0000     -10.251636      -278.9612 
  13   2.0000     -10.250961      -278.9428 
  14   2.0000     -10.250945      -278.9424 
  15   2.0000     -10.250559      -278.9319 
  16   2.0000     -10.224023      -278.2098 
  17   2.0000     -10.223486      -278.1952 
  18   2.0000     -10.199072      -277.5309 
  19   2.0000     -10.198871      -277.5254 
  20   2.0000     -10.198561      -277.5169 
  21   2.0000     -10.198503      -277.5154 
  22   2.0000      -1.098104       -29.8809 
  23   2.0000      -1.097533       -29.8654 
  24   2.0000      -1.093924       -29.7672 
  25   2.0000      -1.093012       -29.7424 
  26   2.0000      -1.007113       -27.4049 
  27   2.0000      -1.006828       -27.3972 
  28   2.0000      -1.001997       -27.2657 
  29   2.0000      -1.000583       -27.2273 
  30   2.0000      -0.874410       -23.7939 
  31   2.0000      -0.793566       -21.5940 
  32   2.0000      -0.791123       -21.5275 
  33   2.0000      -0.747675       -20.3453 
  34   2.0000      -0.743877       -20.2419 
  35   2.0000      -0.702066       -19.1042 
  36   2.0000      -0.698776       -19.0147 
  37   2.0000      -0.650743       -17.7076 
  38   2.0000      -0.644906       -17.5488 
  39   2.0000      -0.591295       -16.0900 
  40   2.0000      -0.587751       -15.9935 
  41   2.0000      -0.584136       -15.8952 
  42   2.0000      -0.561737       -15.2856 
  43   2.0000      -0.560221       -15.2444 
  44   2.0000      -0.527595       -14.3566 
  45   2.0000      -0.525434       -14.2978 
  46   2.0000      -0.519598       -14.1390 
  47   2.0000      -0.513248       -13.9662 
  48   2.0000      -0.495484       -13.4828 
  49   2.0000      -0.493873       -13.4390 
  50   2.0000      -0.481670       -13.1069 
  51   2.0000      -0.478913       -13.0319 
  52   2.0000      -0.478009       -13.0073 
  53   2.0000      -0.472845       -12.8668 
  54   2.0000      -0.463678       -12.6173 
  55   2.0000      -0.462275       -12.5791 
  56   2.0000      -0.448414       -12.2020 
  57   2.0000      -0.438782       -11.9399 
  58   2.0000      -0.431806       -11.7500 
  59   2.0000      -0.426453       -11.6044 
  60   2.0000      -0.414405       -11.2765 
  61   2.0000      -0.411760       -11.2046 
  62   2.0000      -0.408052       -11.1037 
  63   2.0000      -0.404749       -11.0138 
  64   2.0000      -0.393426       -10.7057 
  65   2.0000      -0.389304       -10.5935 
  66   2.0000      -0.382257       -10.4017 
  67   2.0000      -0.377252       -10.2655 
  68   2.0000      -0.372142       -10.1265 
  69   2.0000      -0.364422        -9.9164 
  70   2.0000      -0.362872        -9.8743 
  71   2.0000      -0.359154        -9.7731 
  72   2.0000      -0.356952        -9.7132 
  73   2.0000      -0.353638        -9.6230 
  74   2.0000      -0.349479        -9.5098 
  75   2.0000      -0.332341        -9.0435 
  76   2.0000      -0.312299        -8.4981 
  77   2.0000      -0.311914        -8.4876 
  78   2.0000      -0.310843        -8.4585 
  79   2.0000      -0.309284        -8.4160 
  80   2.0000      -0.280835        -7.6419 
  81   2.0000      -0.280136        -7.6229 
  82   2.0000      -0.276208        -7.5160 
  83   2.0000      -0.271216        -7.3802 
  84   0.0000      -0.018051        -0.4912 
  85   0.0000      -0.001911        -0.0520 
  86   0.0000       0.000351         0.0096 
  87   0.0000       0.001166         0.0317 
  88   0.0000       0.050594         1.3767 
  89   0.0000       0.053343         1.4515 
  90   0.0000       0.061004         1.6600 
  91   0.0000       0.061376         1.6701 
  92   0.0000       0.072847         1.9823 
  93   0.0000       0.079671         2.1680 
  94   0.0000       0.090511         2.4629 
  95   0.0000       0.094874         2.5817 
  96   0.0000       0.102828         2.7981 
  97   0.0000       0.105265         2.8644 
  98   0.0000       0.106900         2.9089 
  99   0.0000       0.108921         2.9639 
 100   0.0000       0.118672         3.2292 
 101   0.0000       0.124140         3.3780 
 102   0.0000       0.129770         3.5312 
 103   0.0000       0.130397         3.5483 
 104   0.0000       0.138757         3.7758 
 105   0.0000       0.139025         3.7831 
 106   0.0000       0.142449         3.8762 
 107   0.0000       0.147628         4.0172 
 108   0.0000       0.158400         4.3103 
 109   0.0000       0.161054         4.3825 
 110   0.0000       0.167309         4.5527 
 111   0.0000       0.173239         4.7141 
 112   0.0000       0.175973         4.7885 
 113   0.0000       0.195124         5.3096 
 114   0.0000       0.196203         5.3390 
 115   0.0000       0.211538         5.7562 
 116   0.0000       0.211926         5.7668 
 117   0.0000       0.226519         6.1639 
 118   0.0000       0.229110         6.2344 
 119   0.0000       0.238794         6.4979 
 120   0.0000       0.241468         6.5707 
 121   0.0000       0.253287         6.8923 
 122   0.0000       0.253720         6.9041 
 123   0.0000       0.258047         7.0218 
 124   0.0000       0.289668         7.8823 
 125   0.0000       0.307707         8.3731 
 126   0.0000       0.318598         8.6695 
 127   0.0000       0.327395         8.9089 
 128   0.0000       0.341724         9.2988 
 129   0.0000       0.369622        10.0579 
 130   0.0000       0.407108        11.0780 
 131   0.0000       0.412971        11.2375 
 132   0.0000       0.415782        11.3140 
 133   0.0000       0.431058        11.7297 
 134   0.0000       0.433229        11.7888 
 135   0.0000       0.438876        11.9424 
 136   0.0000       0.442014        12.0278 
 137   0.0000       0.448147        12.1947 
 138   0.0000       0.448872        12.2144 
 139   0.0000       0.453646        12.3443 
 140   0.0000       0.456449        12.4206 
 141   0.0000       0.458281        12.4705 
 142   0.0000       0.464789        12.6475 
 143   0.0000       0.468210        12.7406 
 144   0.0000       0.482101        13.1186 
 145   0.0000       0.489353        13.3160 
 146   0.0000       0.490195        13.3389 
 147   0.0000       0.491906        13.3854 
 148   0.0000       0.503307        13.6957 
 149   0.0000       0.519706        14.1419 
 150   0.0000       0.522738        14.2244 
 151   0.0000       0.537733        14.6325 
 152   0.0000       0.547630        14.9018 
 153   0.0000       0.551963        15.0197 
 154   0.0000       0.560943        15.2640 
 155   0.0000       0.581072        15.8118 
 156   0.0000       0.591796        16.1036 
 157   0.0000       0.608907        16.5692 
 158   0.0000       0.609457        16.5842 
 159   0.0000       0.615010        16.7353 
 160   0.0000       0.616408        16.7733 
 161   0.0000       0.624300        16.9881 
 162   0.0000       0.625754        17.0276 
 163   0.0000       0.628245        17.0954 
 164   0.0000       0.630038        17.1442 
 165   0.0000       0.632892        17.2219 
 166   0.0000       0.633204        17.2304 
 167   0.0000       0.639532        17.4026 
 168   0.0000       0.640272        17.4227 
 169   0.0000       0.646933        17.6039 
 170   0.0000       0.647504        17.6195 
 171   0.0000       0.652841        17.7647 
 172   0.0000       0.654786        17.8176 
 173   0.0000       0.656485        17.8639 
 174   0.0000       0.658402        17.9160 
 175   0.0000       0.659305        17.9406 
 176   0.0000       0.661017        17.9872 
 177   0.0000       0.665296        18.1036 
 178   0.0000       0.666230        18.1290 
 179   0.0000       0.669091        18.2069 
 180   0.0000       0.672644        18.3036 
 181   0.0000       0.673804        18.3351 
 182   0.0000       0.674225        18.3466 
 183   0.0000       0.676726        18.4146 
 184   0.0000       0.682513        18.5721 
 185   0.0000       0.689205        18.7542 
 186   0.0000       0.693299        18.8656 
 187   0.0000       0.707082        19.2407 
 188   0.0000       0.710199        19.3255 
 189   0.0000       0.720095        19.5948 
 190   0.0000       0.738507        20.0958 
 191   0.0000       0.760696        20.6996 
 192   0.0000       0.765862        20.8402 
 193   0.0000       0.770528        20.9671 
 194   0.0000       0.794579        21.6216 
 195   0.0000       0.814999        22.1773 
 196   0.0000       0.819223        22.2922 
 197   0.0000       0.835949        22.7473 
 198   0.0000       0.877018        23.8649 
 199   0.0000       0.888173        24.1684 
 200   0.0000       0.906270        24.6609 
 201   0.0000       0.908412        24.7192 
 202   0.0000       0.925124        25.1739 
 203   0.0000       0.929444        25.2914 
 204   0.0000       0.936173        25.4746 
 205   0.0000       0.938744        25.5445 
 206   0.0000       0.956101        26.0168 
 207   0.0000       0.967789        26.3349 
 208   0.0000       0.997444        27.1418 
 209   0.0000       0.999561        27.1994 
 210   0.0000       1.023184        27.8423 
 211   0.0000       1.039800        28.2944 
 212   0.0000       1.081525        29.4298 
 213   0.0000       1.086831        29.5742 
 214   0.0000       1.094302        29.7775 
 215   0.0000       1.116933        30.3933 
 216   0.0000       1.119835        30.4723 
 217   0.0000       1.133755        30.8510 
 218   0.0000       1.156478        31.4694 
 219   0.0000       1.163921        31.6719 
 220   0.0000       1.171639        31.8819 
 221   0.0000       1.177943        32.0535 
 222   0.0000       1.183898        32.2155 
 223   0.0000       1.192331        32.4450 
 224   0.0000       1.199647        32.6441 
 225   0.0000       1.207877        32.8680 
 226   0.0000       1.217387        33.1268 
 227   0.0000       1.220435        33.2097 
 228   0.0000       1.247301        33.9408 
 229   0.0000       1.249649        34.0047 
 230   0.0000       1.255750        34.1707 
 231   0.0000       1.280480        34.8436 
 232   0.0000       1.310635        35.6642 
 233   0.0000       1.316543        35.8250 
 234   0.0000       1.326725        36.1020 
 235   0.0000       1.330096        36.1937 
 236   0.0000       1.347225        36.6598 
 237   0.0000       1.359312        36.9888 
 238   0.0000       1.375915        37.4406 
 239   0.0000       1.392420        37.8897 
 240   0.0000       1.406733        38.2791 
 241   0.0000       1.433230        39.0002 
 242   0.0000       1.484244        40.3883 
 243   0.0000       1.486826        40.4586 
 244   0.0000       1.493001        40.6266 
 245   0.0000       1.512175        41.1484 
 246   0.0000       1.513171        41.1755 
 247   0.0000       1.521735        41.4085 
 248   0.0000       1.549602        42.1668 
 249   0.0000       1.552920        42.2571 
 250   0.0000       1.558179        42.4002 
 251   0.0000       1.561800        42.4988 
 252   0.0000       1.563568        42.5468 
 253   0.0000       1.575202        42.8634 
 254   0.0000       1.581071        43.0231 
 255   0.0000       1.588274        43.2191 
 256   0.0000       1.597388        43.4671 
 257   0.0000       1.608834        43.7786 
 258   0.0000       1.613323        43.9008 
 259   0.0000       1.629219        44.3333 
 260   0.0000       1.640361        44.6365 
 261   0.0000       1.658172        45.1212 
 262   0.0000       1.666972        45.3606 
 263   0.0000       1.684053        45.8254 
 264   0.0000       1.686314        45.8869 
 265   0.0000       1.707161        46.4542 
 266   0.0000       1.712654        46.6037 
 267   0.0000       1.720713        46.8230 
 268   0.0000       1.723582        46.9011 
 269   0.0000       1.732489        47.1434 
 270   0.0000       1.738561        47.3086 
 271   0.0000       1.740335        47.3569 
 272   0.0000       1.748416        47.5768 
 273   0.0000       1.758507        47.8514 
 274   0.0000       1.767348        48.0920 
 275   0.0000       1.772110        48.2216 
 276   0.0000       1.775334        48.3093 
 277   0.0000       1.776103        48.3302 
 278   0.0000       1.790530        48.7228 
 279   0.0000       1.792403        48.7738 
 280   0.0000       1.797578        48.9146 
 281   0.0000       1.799798        48.9750 
 282   0.0000       1.801141        49.0115 
 283   0.0000       1.808035        49.1991 
 284   0.0000       1.811265        49.2870 
 285   0.0000       1.819030        49.4983 
 286   0.0000       1.824210        49.6393 
 287   0.0000       1.844672        50.1961 
 288   0.0000       1.852900        50.4200 
 289   0.0000       1.861985        50.6672 
 290   0.0000       1.863920        50.7199 
 291   0.0000       1.879572        51.1458 
 292   0.0000       1.894093        51.5409 
 293   0.0000       1.895803        51.5874 
 294   0.0000       1.902362        51.7659 
 295   0.0000       1.915787        52.1312 
 296   0.0000       1.923372        52.3376 
 297   0.0000       1.945673        52.9445 
 298   0.0000       1.953760        53.1645 
 299   0.0000       1.961260        53.3686 
 300   0.0000       1.961956        53.3875 
 301   0.0000       1.966268        53.5049 
 302   0.0000       1.974991        53.7422 
 303   0.0000       1.985816        54.0368 
 304   0.0000       1.997706        54.3603 
 305   0.0000       2.008514        54.6544 
 306   0.0000       2.010806        54.7168 
 307   0.0000       2.025700        55.1221 
 308   0.0000       2.038062        55.4585 
 309   0.0000       2.048305        55.7372 
 310   0.0000       2.051170        55.8152 
 311   0.0000       2.057863        55.9973 
 312   0.0000       2.075261        56.4707 
 313   0.0000       2.091003        56.8991 
 314   0.0000       2.092428        56.9379 
 315   0.0000       2.120599        57.7044 
 316   0.0000       2.149597        58.4935 
 317   0.0000       2.179473        59.3065 
 318   0.0000       2.210611        60.1538 
 319   0.0000       2.215263        60.2804 
 320   0.0000       2.248063        61.1729 
 321   0.0000       2.257892        61.4404 
 322   0.0000       2.263258        61.5864 
 323   0.0000       2.301281        62.6210 
 324   0.0000       2.306728        62.7693 
 325   0.0000       2.324505        63.2530 
 326   0.0000       2.342002        63.7291 
 327   0.0000       2.358850        64.1876 
 328   0.0000       2.360009        64.2191 
 329   0.0000       2.376662        64.6723 
 330   0.0000       2.377928        64.7067 
 331   0.0000       2.379593        64.7520 
 332   0.0000       2.384013        64.8723 
 333   0.0000       2.403633        65.4062 
 334   0.0000       2.436207        66.2926 
 335   0.0000       2.459634        66.9301 
 336   0.0000       2.460432        66.9517 
 337   0.0000       2.461254        66.9741 
 338   0.0000       2.464810        67.0709 
 339   0.0000       2.478663        67.4479 
 340   0.0000       2.505349        68.1740 
 341   0.0000       2.515563        68.4519 
 342   0.0000       2.517866        68.5146 
 343   0.0000       2.540033        69.1178 
 344   0.0000       2.551915        69.4411 
 345   0.0000       2.563011        69.7431 
 346   0.0000       2.625588        71.4459 
 347   0.0000       2.630252        71.5728 
 348   0.0000       2.630734        71.5859 
 349   0.0000       2.631377        71.6034 
 350   0.0000       2.654780        72.2402 
 351   0.0000       2.659118        72.3583 
 352   0.0000       2.691172        73.2305 
 353   0.0000       2.697642        73.4066 
 354   0.0000       2.703991        73.5793 
 355   0.0000       2.715137        73.8826 
 356   0.0000       2.722276        74.0769 
 357   0.0000       2.748242        74.7835 
 358   0.0000       2.751805        74.8804 
 359   0.0000       2.756954        75.0205 
 360   0.0000       2.788567        75.8808 
 361   0.0000       2.799676        76.1831 
 362   0.0000       2.801794        76.2407 
 363   0.0000       2.806494        76.3686 
 364   0.0000       2.811670        76.5094 
 365   0.0000       2.831807        77.0574 
 366   0.0000       2.835410        77.1554 
 367   0.0000       2.846780        77.4648 
 368   0.0000       2.855753        77.7090 
 369   0.0000       2.868331        78.0513 
 370   0.0000       2.898990        78.8855 
 371   0.0000       2.899796        78.9075 
 372   0.0000       2.905154        79.0533 
 373   0.0000       2.907851        79.1266 
 374   0.0000       2.917153        79.3798 
 375   0.0000       2.925427        79.6049 
 376   0.0000       2.927835        79.6705 
 377   0.0000       2.931148        79.7606 
 378   0.0000       2.969685        80.8092 
 379   0.0000       2.976181        80.9860 
 380   0.0000       2.994173        81.4756 
[...]
 14:     60.67   0.000022    0.11  0.000114  (-0.004338 -0.008354  0.005002)
 15:     61.71   0.000091    0.46  0.000459  (-0.017331  0.002884  0.012275)
 16:     64.28   0.000100    0.51  0.000486  ( 0.003136  0.021595 -0.003052)
 17:     71.15   0.000184    0.93  0.000807  (-0.025443 -0.002006 -0.012485)
 18:     74.52   0.000004    0.02  0.000016  (-0.002600  0.002678 -0.001298)
 19:    111.27   0.000019    0.09  0.000053  ( 0.000699 -0.007211  0.000210)
 20:    123.05   0.000112    0.57  0.000285  (-0.015535 -0.000736  0.006561)
 21:    148.80   0.000102    0.52  0.000215  (-0.013366 -0.000284  0.006004)
 22:    164.70   0.000019    0.09  0.000035  ( 0.000742 -0.005862 -0.000402)
 23:    177.98   0.000076    0.38  0.000133  (-0.000095  0.011475  0.000981)
 24:    194.13   0.001235    6.24  0.001985  (-0.015519  0.000315 -0.041767)
 25:    209.33   0.000321    1.62  0.000479  (-0.001995  0.021734 -0.001565)
 26:    212.40   0.000123    0.62  0.000181  (-0.005617 -0.004187 -0.011479)
 27:    223.81   0.000960    4.85  0.001338  (-0.002018  0.036522 -0.000057)
 28:    282.38   0.000642    3.24  0.000709  (-0.018055 -0.001332 -0.019530)
 29:    304.93   0.001148    5.80  0.001174  ( 0.016000  0.000715 -0.030297)
 30:    323.57   0.000096    0.49  0.000093  ( 0.000003  0.009527  0.001403)
 31:    381.76   0.013042   65.91  0.010661  (-0.100918 -0.002580  0.021687)
 32:    397.85   0.000083    0.42  0.000065  (-0.001561  0.007828 -0.001109)
 33:    429.35   0.003277   16.56  0.002382  (-0.038532 -0.001828 -0.029893)
 34:    448.48   0.001938    9.79  0.001348  ( 0.000545  0.036698 -0.001127)
 35:    465.29   0.001933    9.77  0.001296  ( 0.035928  0.000107 -0.002358)
 36:    489.56   0.000057    0.29  0.000036  (-0.000311  0.006010  0.000295)
 37:    574.01   0.000214    1.08  0.000117  ( 0.007668  0.000135  0.007597)
 38:    599.18   0.000843    4.26  0.000439  ( 0.003117 -0.015187  0.014099)
 39:    599.27   0.001158    5.85  0.000603  ( 0.003145  0.009879  0.022258)
 40:    652.98   0.000761    3.85  0.000364  ( 0.000457  0.019071 -0.000027)
 41:    653.92   0.001123    5.68  0.000536  ( 0.022113 -0.000233  0.006854)
 42:    676.79   0.000103    0.52  0.000048  (-0.000291  0.006884 -0.000405)
 43:    719.89   0.002937   14.84  0.001273  ( 0.033564  0.001042  0.012065)
 44:    741.85   0.000133    0.67  0.000056  (-0.000527 -0.007445 -0.000498)
 45:    779.40   0.002536   12.82  0.001015  (-0.031845 -0.001094 -0.000168)
 46:    806.64   0.000037    0.19  0.000014  (-0.003651  0.000021 -0.001049)
 47:    806.79   0.000000    0.00  0.000000  ( 0.000087 -0.000316 -0.000035)
 48:    834.47   0.000919    4.65  0.000344  (-0.008295 -0.000346 -0.016580)
 49:    868.34   0.002435   12.30  0.000875  ( 0.000549 -0.029573  0.000326)
 50:    910.05   0.007948   40.17  0.002726  ( 0.030864  0.002290 -0.042044)
 51:    914.65   0.004437   22.42  0.001514  ( 0.002035 -0.038797 -0.002142)
 52:    935.24   0.000084    0.42  0.000028  (-0.004984 -0.000037  0.001775)
 53:    952.03   0.000327    1.65  0.000107  ( 0.000201 -0.010357  0.000187)
 54:    971.04   0.002260   11.42  0.000726  (-0.020709  0.000069  0.017244)
 55:    983.40   0.000065    0.33  0.000021  ( 0.000056 -0.004507  0.000538)
 56:    988.88   0.000970    4.90  0.000306  (-0.015553 -0.000373 -0.008000)
 57:    989.91   0.000143    0.72  0.000045  (-0.001206 -0.006595 -0.000270)
 58:   1005.58   0.000094    0.47  0.000029  (-0.000949 -0.005308  0.000240)
 59:   1050.39   0.001603    8.10  0.000476  (-0.004369  0.012430 -0.017398)
 60:   1050.45   0.001648    8.33  0.000490  ( 0.003202  0.012255  0.018144)
 61:   1081.72   0.018422   93.10  0.005314  (-0.072842 -0.001947  0.002187)
 62:   1087.58   0.000049    0.25  0.000014  ( 0.001959 -0.003217  0.000038)
 63:   1095.53   0.061847  312.55  0.017617  ( 0.132723  0.000266  0.001353)
 64:   1098.07   0.004533   22.91  0.001288  (-0.013347 -0.033258  0.001989)
 65:   1106.11   0.000085    0.43  0.000024  ( 0.002118  0.004280 -0.001122)
 66:   1114.25   0.004748   23.99  0.001330  ( 0.001072 -0.036372  0.002377)
 67:   1123.19   0.001312    6.63  0.000365  (-0.018928 -0.000679  0.002413)
 68:   1123.78   0.000005    0.03  0.000001  (-0.001048  0.000395  0.000374)
 69:   1153.45   0.000092    0.47  0.000025  ( 0.004885  0.000099 -0.001064)
 70:   1153.49   0.000046    0.23  0.000012  (-0.003334  0.000035  0.001115)
 71:   1220.56   0.070767  357.63  0.018093  (-0.134359 -0.004557 -0.004487)
 72:   1221.20   0.000294    1.49  0.000075  ( 0.003041  0.008093 -0.000655)
 73:   1233.96   0.001169    5.91  0.000296  (-0.007702  0.011483  0.010226)
 74:   1234.07   0.001331    6.73  0.000337  (-0.007995 -0.009308  0.013639)
 75:   1259.35   0.003176   16.05  0.000787  ( 0.027953  0.000548 -0.002311)
 76:   1260.09   0.069742  352.45  0.017272  ( 0.130829  0.004249 -0.011731)
 77:   1264.96   0.260241  1315.15  0.064201  ( 0.252043  0.007176 -0.024972)
 78:   1272.37   0.002865   14.48  0.000703  (-0.003255 -0.025850  0.004878)
 79:   1272.72   0.001324    6.69  0.000325  ( 0.003791 -0.017536  0.001621)
 80:   1277.15   0.002022   10.22  0.000494  ( 0.021888 -0.000081 -0.003871)
 81:   1277.52   0.000193    0.97  0.000047  ( 0.001555 -0.006623  0.000877)
 82:   1292.97   0.002819   14.24  0.000680  (-0.024612 -0.001151 -0.008558)
 83:   1306.43   0.003348   16.92  0.000800  ( 0.001688 -0.028182  0.001604)
 84:   1328.72   0.001013    5.12  0.000238  ( 0.013483  0.000470  0.007485)
 85:   1342.57   0.007573   38.27  0.001760  ( 0.041264  0.001248  0.007485)
 86:   1343.80   0.002315   11.70  0.000537  ( 0.000649 -0.023149  0.001084)
 87:   1366.00   0.000015    0.07  0.000003  ( 0.000224 -0.001770 -0.000373)
 88:   1383.33   0.039129  197.74  0.008827  (-0.093659 -0.000781 -0.007373)
 89:   1383.90   0.006139   31.02  0.001384  ( 0.004449  0.036890 -0.001923)
 90:   1437.79   0.001684    8.51  0.000366  ( 0.004865  0.008552 -0.016395)
 91:   1437.88   0.002378   12.02  0.000516  (-0.002192  0.021662  0.006480)
 92:   1443.23   0.000605    3.06  0.000131  (-0.011324  0.000951 -0.001270)
 93:   1443.93   0.000773    3.90  0.000167  (-0.000769 -0.012870  0.000866)
 94:   1446.22   0.001906    9.63  0.000411  (-0.003605 -0.009837 -0.017362)
 95:   1446.27   0.001661    8.40  0.000358  ( 0.005472 -0.010057  0.015078)
 96:   1456.12   0.000119    0.60  0.000026  ( 0.004701  0.000159  0.001848)
 97:   1476.51   0.000591    2.99  0.000125  (-0.000326  0.011165 -0.000470)
 98:   1493.04   0.000141    0.71  0.000029  (-0.005141 -0.000188  0.001720)
 99:   1493.12   0.000006    0.03  0.000001  (-0.000410  0.001036  0.000035)
100:   1502.01   0.001761    8.90  0.000366  ( 0.014440 -0.003540 -0.012036)
101:   1502.04   0.000793    4.01  0.000165  (-0.004758 -0.011194  0.004099)
102:   1837.35   0.074101  374.48  0.012586  (-0.041750 -0.002337  0.104101)
103:   1842.09   0.052192  263.75  0.008842  ( 0.003435 -0.093912 -0.003232)
104:   1853.07   0.031818  160.80  0.005358  (-0.045913  0.000909  0.057004)
105:   1853.49   0.030767  155.49  0.005180  (-0.000711 -0.071951  0.001661)
106:   3049.22   0.000022    0.11  0.000002  ( 0.000116 -0.001485 -0.000037)
107:   3049.28   0.000020    0.10  0.000002  (-0.000082 -0.001443 -0.000025)
108:   3050.63   0.001008    5.09  0.000103  (-0.005642  0.005388 -0.006500)
109:   3050.71   0.000971    4.91  0.000099  (-0.005598 -0.005709 -0.005953)
110:   3056.98   0.005587   28.23  0.000570  ( 0.017330 -0.000488  0.016424)
111:   3057.11   0.004906   24.80  0.000501  (-0.000577 -0.022367 -0.000473)
112:   3067.76   0.004412   22.29  0.000449  ( 0.010289 -0.000316  0.018515)
113:   3071.83   0.005239   26.48  0.000532  ( 0.000202 -0.023069 -0.000265)
114:   3098.67   0.000121    0.61  0.000012  (-0.001006 -0.002482  0.002236)
115:   3098.99   0.000135    0.68  0.000014  (-0.001526  0.002587  0.002133)
116:   3115.38   0.000447    2.26  0.000045  ( 0.000544 -0.006664  0.000252)
117:   3119.02   0.005231   26.44  0.000523  (-0.005744  0.013635 -0.017450)
118:   3119.28   0.005114   25.84  0.000512  ( 0.004221  0.015027  0.016369)
119:   3125.02   0.000042    0.21  0.000004  ( 0.001704  0.000873  0.000711)
120:   3127.12   0.000541    2.74  0.000054  ( 0.000969  0.004040  0.006063)
121:   3127.17   0.000542    2.74  0.000054  ( 0.001550 -0.003662  0.006190)
122:   3128.64   0.000692    3.50  0.000069  ( 0.000341  0.008247 -0.000939)
123:   3141.30   0.004578   23.14  0.000455  ( 0.016898 -0.000230 -0.013008)
124:   3176.13   0.000691    3.49  0.000068  (-0.007727  0.001231  0.002578)
125:   3176.23   0.000660    3.34  0.000065  (-0.007543 -0.001686  0.002266)

* The epsilon (eps) is given for a Dirac delta lineshape.
** The dipole moment derivative (T) already includes vibrational overlap.

The first frequency considered to be a vibration is 6
The total number of vibrations considered is 120


--------------------------
THERMOCHEMISTRY AT 298.15K
--------------------------

Temperature         ... 298.15 K
Pressure            ... 1.00 atm
Total Mass          ... 316.31 AMU

Throughout the following assumptions are being made:
  (1) The electronic state is orbitally nondegenerate
  (2) There are no thermally accessible electronically excited states
  (3) Hindered rotations indicated by low frequency modes are not
      treated as such but are treated as vibrations and this may
      cause some error
  (4) All equations used are the standard statistical mechanics
      equations for an ideal gas
  (5) All vibrations are strictly harmonic

freq.       6.68  E(vib)   ...       0.58 
freq.       8.03  E(vib)   ...       0.58 
freq.      21.81  E(vib)   ...       0.56 
freq.      29.64  E(vib)   ...       0.55 
freq.      32.48  E(vib)   ...       0.55 
freq.      34.07  E(vib)   ...       0.55 
freq.      42.34  E(vib)   ...       0.53 
freq.      58.04  E(vib)   ...       0.51 
freq.      60.67  E(vib)   ...       0.51 
freq.      61.71  E(vib)   ...       0.51 
freq.      64.28  E(vib)   ...       0.51 
freq.      71.15  E(vib)   ...       0.50 
freq.      74.52  E(vib)   ...       0.49 
freq.     111.27  E(vib)   ...       0.45 
freq.     123.05  E(vib)   ...       0.43 
freq.     148.80  E(vib)   ...       0.41 
freq.     164.70  E(vib)   ...       0.39 
freq.     177.98  E(vib)   ...       0.37 
freq.     194.13  E(vib)   ...       0.36 
freq.     209.33  E(vib)   ...       0.34 
freq.     212.40  E(vib)   ...       0.34 
freq.     223.81  E(vib)   ...       0.33 
freq.     282.38  E(vib)   ...       0.28 
freq.     304.93  E(vib)   ...       0.26 
freq.     323.57  E(vib)   ...       0.25 
freq.     381.76  E(vib)   ...       0.21 
freq.     397.85  E(vib)   ...       0.20 
freq.     429.35  E(vib)   ...       0.18 
freq.     448.48  E(vib)   ...       0.17 
freq.     465.29  E(vib)   ...       0.16 
freq.     489.56  E(vib)   ...       0.15 
freq.     574.01  E(vib)   ...       0.11 
freq.     599.18  E(vib)   ...       0.10 
freq.     599.27  E(vib)   ...       0.10 
freq.     652.98  E(vib)   ...       0.08 
freq.     653.92  E(vib)   ...       0.08 
freq.     676.79  E(vib)   ...       0.08 
freq.     719.89  E(vib)   ...       0.07 
freq.     741.85  E(vib)   ...       0.06 
freq.     779.40  E(vib)   ...       0.05 
freq.     806.64  E(vib)   ...       0.05 
freq.     806.79  E(vib)   ...       0.05 
freq.     834.47  E(vib)   ...       0.04 
freq.     868.34  E(vib)   ...       0.04 
freq.     910.05  E(vib)   ...       0.03 
freq.     914.65  E(vib)   ...       0.03 
freq.     935.24  E(vib)   ...       0.03 
freq.     952.03  E(vib)   ...       0.03 
freq.     971.04  E(vib)   ...       0.03 
freq.     983.40  E(vib)   ...       0.02 
freq.     988.88  E(vib)   ...       0.02 
freq.     989.91  E(vib)   ...       0.02 
freq.    1005.58  E(vib)   ...       0.02 
freq.    1050.39  E(vib)   ...       0.02 
freq.    1050.45  E(vib)   ...       0.02 
freq.    1081.72  E(vib)   ...       0.02 
freq.    1087.58  E(vib)   ...       0.02 
freq.    1095.53  E(vib)   ...       0.02 
freq.    1098.07  E(vib)   ...       0.02 
freq.    1106.11  E(vib)   ...       0.02 
freq.    1114.25  E(vib)   ...       0.01 
freq.    1123.19  E(vib)   ...       0.01 
freq.    1123.78  E(vib)   ...       0.01 
freq.    1153.45  E(vib)   ...       0.01 
freq.    1153.49  E(vib)   ...       0.01 
freq.    1220.56  E(vib)   ...       0.01 
freq.    1221.20  E(vib)   ...       0.01 
freq.    1233.96  E(vib)   ...       0.01 
freq.    1234.07  E(vib)   ...       0.01 
freq.    1259.35  E(vib)   ...       0.01 
freq.    1260.09  E(vib)   ...       0.01 
freq.    1264.96  E(vib)   ...       0.01 
freq.    1272.37  E(vib)   ...       0.01 
freq.    1272.72  E(vib)   ...       0.01 
freq.    1277.15  E(vib)   ...       0.01 
freq.    1277.52  E(vib)   ...       0.01 
freq.    1292.97  E(vib)   ...       0.01 
freq.    1306.43  E(vib)   ...       0.01 
freq.    1328.72  E(vib)   ...       0.01 
freq.    1342.57  E(vib)   ...       0.01 
freq.    1343.80  E(vib)   ...       0.01 
freq.    1366.00  E(vib)   ...       0.01 
freq.    1383.33  E(vib)   ...       0.00 
freq.    1383.90  E(vib)   ...       0.00 
freq.    1437.79  E(vib)   ...       0.00 
freq.    1437.88  E(vib)   ...       0.00 
freq.    1443.23  E(vib)   ...       0.00 
freq.    1443.93  E(vib)   ...       0.00 
freq.    1446.22  E(vib)   ...       0.00 
freq.    1446.27  E(vib)   ...       0.00 
freq.    1456.12  E(vib)   ...       0.00 
freq.    1476.51  E(vib)   ...       0.00 
freq.    1493.04  E(vib)   ...       0.00 
freq.    1493.12  E(vib)   ...       0.00 
freq.    1502.01  E(vib)   ...       0.00 
freq.    1502.04  E(vib)   ...       0.00 
freq.    1837.35  E(vib)   ...       0.00 
freq.    1842.09  E(vib)   ...       0.00 
freq.    1853.07  E(vib)   ...       0.00 
freq.    1853.49  E(vib)   ...       0.00 
freq.    3049.22  E(vib)   ...       0.00 
freq.    3049.28  E(vib)   ...       0.00 
freq.    3050.63  E(vib)   ...       0.00 
freq.    3050.71  E(vib)   ...       0.00 
freq.    3056.98  E(vib)   ...       0.00 
freq.    3057.11  E(vib)   ...       0.00 
freq.    3067.76  E(vib)   ...       0.00 
freq.    3071.83  E(vib)   ...       0.00 
freq.    3098.67  E(vib)   ...       0.00 
freq.    3098.99  E(vib)   ...       0.00 
freq.    3115.38  E(vib)   ...       0.00 
freq.    3119.02  E(vib)   ...       0.00 
freq.    3119.28  E(vib)   ...       0.00 
freq.    3125.02  E(vib)   ...       0.00 
freq.    3127.12  E(vib)   ...       0.00 
freq.    3127.17  E(vib)   ...       0.00 
freq.    3128.64  E(vib)   ...       0.00 
freq.    3141.30  E(vib)   ...       0.00 
freq.    3176.13  E(vib)   ...       0.00 
freq.    3176.23  E(vib)   ...       0.00 

------------
INNER ENERGY
------------

The inner energy is: U= E(el) + E(ZPE) + E(vib) + E(rot) + E(trans)
    E(el)   - is the total energy from the electronic structure calculation
              = E(kin-el) + E(nuc-el) + E(el-el) + E(nuc-nuc)
    E(ZPE)  - the the zero temperature vibrational energy from the frequency calculation
    E(vib)  - the the finite temperature correction to E(ZPE) due to population
              of excited vibrational states
    E(rot)  - is the rotational thermal energy
    E(trans)- is the translational thermal energy

Summary of contributions to the inner energy U:
Electronic energy                ...  -1145.88215409 Eh
Zero point energy                ...      0.33800871 Eh     212.10 kcal/mol
Thermal vibrational correction   ...      0.02184399 Eh      13.71 kcal/mol
Thermal rotational correction    ...      0.00141627 Eh       0.89 kcal/mol
Thermal translational correction ...      0.00141627 Eh       0.89 kcal/mol
-----------------------------------------------------------------------
Total thermal energy                  -1145.51946884 Eh


Summary of corrections to the electronic energy:
(perhaps to be used in another calculation)
Total thermal correction                  0.02467654 Eh      15.48 kcal/mol
Non-thermal (ZPE) correction              0.33800871 Eh     212.10 kcal/mol
-----------------------------------------------------------------------
Total correction                          0.36268525 Eh     227.59 kcal/mol


--------
ENTHALPY
--------

The enthalpy is H = U + kB*T
                kB is Boltzmann's constant
Total free energy                 ...  -1145.51946884 Eh 
Thermal Enthalpy correction       ...      0.00094421 Eh       0.59 kcal/mol
-----------------------------------------------------------------------
Total Enthalpy                    ...  -1145.51852463 Eh


Note: Only C1 symmetry has been detected, increase convergence thresholds 
      if your molecule has a higher symmetry. Symmetry factor of 1.0 is   
      used for the rotational entropy correction. 
 

Note: Rotational entropy computed according to Herzberg 
Infrared and Raman Spectra, Chapter V,1, Van Nostrand Reinhold, 1945 
Point Group:  C1, Symmetry Number:   1  
Rotational constants in cm-1:     0.026046     0.002256     0.002232 

Vibrational entropy computed according to the QRRHO of S. Grimme
Chem.Eur.J. 2012 18 9955


-------
ENTROPY
-------

The entropy contributions are T*S = T*(S(el)+S(vib)+S(rot)+S(trans))
     S(el)   - electronic entropy
     S(vib)  - vibrational entropy
     S(rot)  - rotational entropy
     S(trans)- translational entropy
The entropies will be listed as multiplied by the temperature to get
units of energy

Electronic entropy                ...      0.00000000 Eh      0.00 kcal/mol
Vibrational entropy               ...      0.04234003 Eh     26.57 kcal/mol
Rotational entropy                ...      0.01699197 Eh     10.66 kcal/mol
Translational entropy             ...      0.02050214 Eh     12.87 kcal/mol
-----------------------------------------------------------------------
Final entropy term                ...      0.07983413 Eh     50.10 kcal/mol

In case the symmetry of your molecule has not been determined correctly
or in case you have a reason to use a different symmetry number we print 
out the resulting rotational entropy values for sn=1,12 :
 --------------------------------------------------------
|  sn= 1 | S(rot)=       0.01699197 Eh     10.66 kcal/mol|
|  sn= 2 | S(rot)=       0.01633751 Eh     10.25 kcal/mol|
|  sn= 3 | S(rot)=       0.01595468 Eh     10.01 kcal/mol|
|  sn= 4 | S(rot)=       0.01568306 Eh      9.84 kcal/mol|
|  sn= 5 | S(rot)=       0.01547237 Eh      9.71 kcal/mol|
|  sn= 6 | S(rot)=       0.01530023 Eh      9.60 kcal/mol|
|  sn= 7 | S(rot)=       0.01515468 Eh      9.51 kcal/mol|
|  sn= 8 | S(rot)=       0.01502860 Eh      9.43 kcal/mol|
|  sn= 9 | S(rot)=       0.01491739 Eh      9.36 kcal/mol|
|  sn=10 | S(rot)=       0.01481791 Eh      9.30 kcal/mol|
|  sn=11 | S(rot)=       0.01472792 Eh      9.24 kcal/mol|
|  sn=12 | S(rot)=       0.01464577 Eh      9.19 kcal/mol|
 --------------------------------------------------------


-------------------
GIBBS FREE ENERGY
-------------------

The Gibbs free energy is G = H - T*S

Total enthalpy                    ...  -1145.51852463 Eh 
Total entropy correction          ...     -0.07983413 Eh    -50.10 kcal/mol
-----------------------------------------------------------------------
Final Gibbs free energy         ...  -1145.59835876 Eh

For completeness - the Gibbs free energy minus the electronic energy
G-E(el)                           ...      0.28379532 Eh    178.08 kcal/mol


Timings for individual modules:

Sum of individual times         ...     1034.420 sec (=  17.240 min)
GTO integral calculation        ...       41.888 sec (=   0.698 min)   4.0 %
SCF iterations                  ...      761.254 sec (=  12.688 min)  73.6 %
SCF Gradient evaluation         ...      104.010 sec (=   1.734 min)  10.1 %
Geometry relaxation             ...        2.174 sec (=   0.036 min)   0.2 %
Analytical frequency calculation...      125.093 sec (=   2.085 min)  12.1 %
                             ****ORCA TERMINATED NORMALLY****
TOTAL RUN TIME: 0 days 0 hours 21 minutes 38 seconds 509 msec
