
                                 *****************
                                 * O   R   C   A *
                                 *****************

                                            #,                                       
                                            ###                                      
                                            ####                                     
                                            #####                                    
                                            ######                                   
                                           ########,                                 
                                     ,,################,,,,,                         
                               ,,#################################,,                 
                          ,,##########################################,,             
                       ,#########################################, ''#####,          
                    ,#############################################,,   '####,        
                  ,##################################################,,,,####,       
                ,###########''''           ''''###############################       
              ,#####''   ,,,,##########,,,,          '''####'''          '####       
            ,##' ,,,,###########################,,,                        '##       
           ' ,,###''''                  '''############,,,                           
         ,,##''                                '''############,,,,        ,,,,,,###''
      ,#''                                            '''#######################'''  
     '                                                          ''''####''''         
             ,#######,   #######,   ,#######,      ##                                
            ,#'     '#,  ##    ##  ,#'     '#,    #''#        ######   ,####,        
            ##       ##  ##   ,#'  ##            #'  '#       #        #'  '#        
            ##       ##  #######   ##           ,######,      #####,   #    #        
            '#,     ,#'  ##    ##  '#,     ,#' ,#      #,         ##   #,  ,#        
             '#######'   ##     ##  '#######'  #'      '#     #####' # '####'        



                  #######################################################
                  #                        -***-                        #
                  #          Department of theory and spectroscopy      #
                  #    Directorship and core code : Frank Neese         #
                  #        Max Planck Institute fuer Kohlenforschung    #
                  #                Kaiser Wilhelm Platz 1               #
                  #                 D-45470 Muelheim/Ruhr               #
                  #                      Germany                        #
                  #                                                     #
                  #                  All rights reserved                #
                  #                        -***-                        #
                  #######################################################


                         Program Version 5.0.3 -  RELEASE  -


 With contributions from (in alphabetic order):
   Daniel Aravena         : Magnetic Suceptibility
   Michael Atanasov       : Ab Initio Ligand Field Theory (pilot matlab implementation)
   Alexander A. Auer      : GIAO ZORA, VPT2 properties, NMR spectrum
   Ute Becker             : Parallelization
   Giovanni Bistoni       : ED, misc. LED, open-shell LED, HFLD
   Martin Brehm           : Molecular dynamics
   Dmytro Bykov           : SCF Hessian
   Vijay G. Chilkuri      : MRCI spin determinant printing, contributions to CSF-ICE
   Dipayan Datta          : RHF DLPNO-CCSD density
   Achintya Kumar Dutta   : EOM-CC, STEOM-CC
   Dmitry Ganyushin       : Spin-Orbit,Spin-Spin,Magnetic field MRCI
   Miquel Garcia          : C-PCM and meta-GGA Hessian, CC/C-PCM, Gaussian charge scheme
   Yang Guo               : DLPNO-NEVPT2, F12-NEVPT2, CIM, IAO-localization
   Andreas Hansen         : Spin unrestricted coupled pair/coupled cluster methods
   Benjamin Helmich-Paris : MC-RPA, TRAH-SCF, COSX integrals
   Lee Huntington         : MR-EOM, pCC
   Robert Izsak           : Overlap fitted RIJCOSX, COSX-SCS-MP3, EOM
   Marcus Kettner         : VPT2
   Christian Kollmar      : KDIIS, OOCD, Brueckner-CCSD(T), CCSD density, CASPT2, CASPT2-K
   Simone Kossmann        : Meta GGA functionals, TD-DFT gradient, OOMP2, MP2 Hessian
   Martin Krupicka        : Initial AUTO-CI
   Lucas Lang             : DCDCAS
   Marvin Lechner         : AUTO-CI (C++ implementation), FIC-MRCC
   Dagmar Lenk            : GEPOL surface, SMD
   Dimitrios Liakos       : Extrapolation schemes; Compound Job, initial MDCI parallelization
   Dimitrios Manganas     : Further ROCIS development; embedding schemes
   Dimitrios Pantazis     : SARC Basis sets
   Anastasios Papadopoulos: AUTO-CI, single reference methods and gradients
   Taras Petrenko         : DFT Hessian,TD-DFT gradient, ASA, ECA, R-Raman, ABS, FL, XAS/XES, NRVS
   Peter Pinski           : DLPNO-MP2, DLPNO-MP2 Gradient
   Christoph Reimann      : Effective Core Potentials
   Marius Retegan         : Local ZFS, SOC
   Christoph Riplinger    : Optimizer, TS searches, QM/MM, DLPNO-CCSD(T), (RO)-DLPNO pert. Triples
   Tobias Risthaus        : Range-separated hybrids, TD-DFT gradient, RPA, STAB
   Michael Roemelt        : Original ROCIS implementation
   Masaaki Saitow         : Open-shell DLPNO-CCSD energy and density
   Barbara Sandhoefer     : DKH picture change effects
   Avijit Sen             : IP-ROCIS
   Kantharuban Sivalingam : CASSCF convergence, NEVPT2, FIC-MRCI
   Bernardo de Souza      : ESD, SOC TD-DFT
   Georgi Stoychev        : AutoAux, RI-MP2 NMR, DLPNO-MP2 response
   Willem Van den Heuvel  : Paramagnetic NMR
   Boris Wezisla          : Elementary symmetry handling
   Frank Wennmohs         : Technical directorship


 We gratefully acknowledge several colleagues who have allowed us to
 interface, adapt or use parts of their codes:
   Stefan Grimme, W. Hujo, H. Kruse, P. Pracht,  : VdW corrections, initial TS optimization,
                  C. Bannwarth, S. Ehlert          DFT functionals, gCP, sTDA/sTD-DF
   Ed Valeev, F. Pavosevic, A. Kumar             : LibInt (2-el integral package), F12 methods
   Garnet Chan, S. Sharma, J. Yang, R. Olivares  : DMRG
   Ulf Ekstrom                                   : XCFun DFT Library
   Mihaly Kallay                                 : mrcc  (arbitrary order and MRCC methods)
   Jiri Pittner, Ondrej Demel                    : Mk-CCSD
   Frank Weinhold                                : gennbo (NPA and NBO analysis)
   Christopher J. Cramer and Donald G. Truhlar   : smd solvation model
   Lars Goerigk                                  : TD-DFT with DH, B97 family of functionals
   V. Asgeirsson, H. Jonsson                     : NEB implementation
   FAccTs GmbH                                   : IRC, NEB, NEB-TS, DLPNO-Multilevel, CI-OPT
                                                   MM, QMMM, 2- and 3-layer-ONIOM, Crystal-QMMM,
                                                   LR-CPCM, SF, NACMEs, symmetry and pop. for TD-DFT,
                                                   nearIR, NL-DFT gradient (VV10), updates on ESD,
                                                   ML-optimized integration grids
   S Lehtola, MJT Oliveira, MAL Marques          : LibXC Library
   Liviu Ungur et al                             : ANISO software


 Your calculation uses the libint2 library for the computation of 2-el integrals
 For citations please refer to: http://libint.valeyev.net

 Your ORCA version has been built with support for libXC version: 5.1.0
 For citations please refer to: https://tddft.org/programs/libxc/

 This ORCA versions uses:
   CBLAS   interface :  Fast vector & matrix operations
   LAPACKE interface :  Fast linear algebra routines
   SCALAPACK package :  Parallel linear algebra routines
   Shared memory     :  Shared parallel matrices
   BLAS/LAPACK       :  OpenBLAS 0.3.19 NO_AFFINITY VORTEX SINGLE_THREADED
        Core in use  :  VORTEX
   Copyright (c) 2011-2014, The OpenBLAS Project


Your calculation utilizes the atom-pairwise dispersion correction
with the Becke-Johnson damping scheme (D3BJ)
Cite in your paper:
S.Grimme, S.Ehrlich, L.Goerigk, J Comput Chem, (2011), 32, 1456–1465 
S.Grimme, J.Antony, S.Ehrlich and H.Krieg, J.Chem.Phys., 132, (2010), 154104 
   

================================================================================

----- Orbital basis set information -----
Your calculation utilizes the basis: def2-TZVP
   F. Weigend and R. Ahlrichs, Phys. Chem. Chem. Phys. 7, 3297 (2005).

----- AuxJ basis set information -----
Your calculation utilizes the auxiliary basis: def2/J
   F. Weigend, Phys. Chem. Chem. Phys. 8, 1057 (2006).

================================================================================
                                        WARNINGS
                       Please study these warnings very carefully!
================================================================================

WARNING: Old DensityContainer found on disk!
         Will remove this file - 
         If you want to keep old densities, please start your calculation with a different basename. 


WARNING: Geometry Optimization
  ===> : Switching off AutoStart
         For restart on a previous wavefunction, please use MOREAD

INFO   : the flag for use of the SHARK integral package has been found!

================================================================================
                                       INPUT FILE
================================================================================
NAME = Atom1.inp
|  1> #Powered by MCPoly
|  2> 
|  3> ! B3LYP D3BJ def2-TZVP OPT FREQ
|  4> %maxcore 4096
|  5> %PAL NPROCS 8 END
|  6> %geom
|  7> POTENTIALS
|  8> {C 0 3 1.500}
|  9> end
| 10> end
| 11> 
| 12> *xyz 0 1
| 13> C         -7.11449        1.33604       -0.03969
| 14> C         -5.87285        0.46952       -0.06689
| 15> C         -4.65267        1.33725        0.06683
| 16> C         -3.41103        0.47072        0.03973
| 17> F         -7.23198        2.03119        1.11508
| 18> F         -8.23816        0.58500       -0.15839
| 19> F         -7.13828        2.23349       -1.05189
| 20> F         -5.82805       -0.24813       -1.22499
| 21> F         -5.92156       -0.45002        0.93825
| 22> F         -4.60392        2.25673       -0.93837
| 23> F         -4.69750        2.05497        1.22489
| 24> F         -3.38726       -0.42661        1.05204
| 25> F         -3.29354       -0.22457       -1.11495
| 26> F         -2.28736        1.22177        0.15836
| 27> *
| 28> 
| 29>                          ****END OF INPUT****
================================================================================

                       *****************************
                       * Geometry Optimization Run *
                       *****************************

Geometry optimization settings:
Update method            Update   .... BFGS
Choice of coordinates    CoordSys .... Z-matrix Internals
Initial Hessian          InHess   .... Almoef's Model

Convergence Tolerances:
Energy Change            TolE     ....  5.0000e-06 Eh
Max. Gradient            TolMAXG  ....  3.0000e-04 Eh/bohr
RMS Gradient             TolRMSG  ....  1.0000e-04 Eh/bohr
Max. Displacement        TolMAXD  ....  4.0000e-03 bohr
RMS Displacement         TolRMSD  ....  2.0000e-03 bohr
Strict Convergence                ....  False
------------------------------------------------------------------------------
                        ORCA OPTIMIZATION COORDINATE SETUP
------------------------------------------------------------------------------

The optimization will be done in new redundant internal coordinates
Making redundant internal coordinates   ...  (new redundants) done
Evaluating the initial hessian          ...  (Almloef) done
Evaluating the coordinates              ...  done
Calculating the B-matrix                .... done
Calculating the G-matrix                .... done
Diagonalizing the G-matrix              .... done
The first mode is                       ....   28
The number of degrees of freedom        ....   36

    -----------------------------------------------------------------
                    Redundant Internal Coordinates


    -----------------------------------------------------------------
         Definition                    Initial Value    Approx d2E/dq
    -----------------------------------------------------------------
      1. B(C   1,C   0)                  1.5144         0.395677   
      2. B(C   2,C   1)                  1.5032         0.412193   
      3. B(C   3,C   2)                  1.5144         0.395671   
      4. B(F   4,C   0)                  1.3530         0.595722   
      5. B(F   5,C   0)                  1.3568         0.587498   
      6. B(F   6,C   0)                  1.3530         0.595722   
      7. B(F   7,C   1)                  1.3632         0.573822   
      8. B(F   8,C   1)                  1.3632         0.573815   
      9. B(F   9,C   2)                  1.3632         0.573804   
     10. B(F  10,C   2)                  1.3632         0.573814   
     11. B(F  11,C   3)                  1.3530         0.595717   
     12. B(F  12,C   3)                  1.3530         0.595733   
     13. B(F  13,C   3)                  1.3568         0.587499   
     14. A(F   4,C   0,F   6)          107.2294         0.418616   
     15. A(F   4,C   0,F   5)          106.6884         0.417581   
     16. A(F   5,C   0,F   6)          106.6885         0.417581   
     17. A(C   1,C   0,F   4)          112.3663         0.393655   
     18. A(C   1,C   0,F   5)          111.1455         0.392698   
     19. A(C   1,C   0,F   6)          112.3667         0.393655   
     20. A(F   7,C   1,F   8)          105.8118         0.413074   
     21. A(C   2,C   1,F   8)          110.6587         0.393891   
     22. A(C   0,C   1,F   8)          110.0869         0.391082   
     23. A(C   2,C   1,F   7)          110.6583         0.393892   
     24. A(C   0,C   1,C   2)          109.4893         0.373202   
     25. A(C   0,C   1,F   7)          110.0870         0.391083   
     26. A(C   3,C   2,F   9)          110.0869         0.391080   
     27. A(C   1,C   2,F   9)          110.6583         0.393890   
     28. A(F   9,C   2,F  10)          105.8120         0.413071   
     29. A(C   3,C   2,F  10)          110.0866         0.391081   
     30. A(C   1,C   2,F  10)          110.6588         0.393891   
     31. A(C   1,C   2,C   3)          109.4894         0.373201   
     32. A(F  12,C   3,F  13)          106.6891         0.417582   
     33. A(F  11,C   3,F  13)          106.6884         0.417580   
     34. A(C   2,C   3,F  13)          111.1454         0.392697   
     35. A(F  11,C   3,F  12)          107.2293         0.418617   
     36. A(C   2,C   3,F  12)          112.3666         0.393655   
     37. A(C   2,C   3,F  11)          112.3659         0.393653   
     38. D(F   7,C   1,C   0,F   6)    -61.3443         0.012432   
     39. D(F   8,C   1,C   0,F   5)    -58.1380         0.012432   
     40. D(C   2,C   1,C   0,F   5)    179.9981         0.012432   
     41. D(F   8,C   1,C   0,F   4)     61.3405         0.012432   
     42. D(C   2,C   1,C   0,F   4)    -60.5233         0.012432   
     43. D(F   7,C   1,C   0,F   5)     58.1348         0.012432   
     44. D(F   8,C   1,C   0,F   6)   -177.6171         0.012432   
     45. D(F   7,C   1,C   0,F   4)    177.6133         0.012432   
     46. D(C   2,C   1,C   0,F   6)     60.5191         0.012432   
     47. D(F   9,C   2,C   1,F   7)     63.0355         0.013455   
     48. D(C   3,C   2,C   1,F   8)     58.4761         0.013455   
     49. D(C   3,C   2,C   1,F   7)    -58.4842         0.013455   
     50. D(C   3,C   2,C   1,C   0)    179.9960         0.013455   
     51. D(F   9,C   2,C   1,F   8)    179.9958         0.013455   
     52. D(F  10,C   2,C   1,F   8)    -63.0435         0.013455   
     53. D(F  10,C   2,C   1,F   7)    179.9962         0.013455   
     54. D(F  10,C   2,C   1,C   0)     58.4764         0.013455   
     55. D(F   9,C   2,C   1,C   0)    -58.4843         0.013455   
     56. D(F  13,C   3,C   2,F   9)     58.1352         0.012431   
     57. D(F  13,C   3,C   2,C   1)    179.9985         0.012431   
     58. D(F  12,C   3,C   2,F  10)   -177.6174         0.012431   
     59. D(F  12,C   3,C   2,F   9)    -61.3445         0.012431   
     60. D(F  12,C   3,C   2,C   1)     60.5189         0.012431   
     61. D(F  11,C   3,C   2,F  10)     61.3407         0.012431   
     62. D(F  11,C   3,C   2,F   9)    177.6135         0.012431   
     63. D(F  13,C   3,C   2,F  10)    -58.1377         0.012431   
     64. D(F  11,C   3,C   2,C   1)    -60.5231         0.012431   
    -----------------------------------------------------------------

Number of atoms                         .... 14
Number of degrees of freedom            .... 64

         *************************************************************
         *                GEOMETRY OPTIMIZATION CYCLE   1            *
         *************************************************************
---------------------------------
CARTESIAN COORDINATES (ANGSTROEM)
---------------------------------
  C     -7.114490    1.336040   -0.039690
  C     -5.872850    0.469520   -0.066890
  C     -4.652670    1.337250    0.066830
  C     -3.411030    0.470720    0.039730
  F     -7.231980    2.031190    1.115080
  F     -8.238160    0.585000   -0.158390
  F     -7.138280    2.233490   -1.051890
  F     -5.828050   -0.248130   -1.224990
  F     -5.921560   -0.450020    0.938250
  F     -4.603920    2.256730   -0.938370
  F     -4.697500    2.054970    1.224890
  F     -3.387260   -0.426610    1.052040
  F     -3.293540   -0.224570   -1.114950
  F     -2.287360    1.221770    0.158360

----------------------------
CARTESIAN COORDINATES (A.U.)
----------------------------
  NO LB      ZA    FRAG     MASS         X           Y           Z
   0 C     6.0000    0    12.011  -13.444438    2.524750   -0.075003
   1 C     6.0000    0    12.011  -11.098078    0.887264   -0.126404
   2 C     6.0000    0    12.011   -8.792272    2.527036    0.126290
   3 C     6.0000    0    12.011   -6.445913    0.889532    0.075079
   4 F     9.0000    0    18.998  -13.666462    3.838393    2.107196
   5 F     9.0000    0    18.998  -15.567866    1.105490   -0.299314
   6 F     9.0000    0    18.998  -13.489394    4.220684   -1.987784
   7 F     9.0000    0    18.998  -11.013418   -0.468898   -2.314896
   8 F     9.0000    0    18.998  -11.190127   -0.850415    1.773036
   9 F     9.0000    0    18.998   -8.700148    4.264602   -1.773262
  10 F     9.0000    0    18.998   -8.876989    3.883331    2.314707
  11 F     9.0000    0    18.998   -6.400994   -0.806176    1.988067
  12 F     9.0000    0    18.998   -6.223889   -0.424376   -2.106950
  13 F     9.0000    0    18.998   -4.322484    2.308811    0.299257

--------------------------------
INTERNAL COORDINATES (ANGSTROEM)
--------------------------------
 C      0   0   0     0.000000000000     0.00000000     0.00000000
 C      1   0   0     1.514353538643     0.00000000     0.00000000
 C      2   1   0     1.503221748013   109.48933909     0.00000000
 C      3   2   1     1.514357467872   109.48941182   179.99597034
 F      1   2   3     1.352971239716   112.36628378   299.47671644
 F      1   2   3     1.356755335534   111.14549286   179.99813301
 F      1   2   3     1.352971288165   112.36669855    60.51910615
 F      2   1   3     1.363166964278   110.08703806   238.13662356
 F      2   1   3     1.363170163736   110.08686589   121.86381932
 F      3   2   1     1.363175363957   110.65828248   301.51569296
 F      3   2   1     1.363170822348   110.65875720    58.47637322
 F      4   3   2     1.352973642722   112.36594309   299.47691483
 F      4   3   2     1.352966365657   112.36662051    60.51887449
 F      4   3   2     1.356754748766   111.14537293   179.99854722

---------------------------
INTERNAL COORDINATES (A.U.)
---------------------------
 C      0   0   0     0.000000000000     0.00000000     0.00000000
 C      1   0   0     2.861713457969     0.00000000     0.00000000
 C      2   1   0     2.840677422299   109.48933909     0.00000000
 C      3   2   1     2.861720883137   109.48941182   179.99597034
 F      1   2   3     2.556745110136   112.36628378   299.47671644
 F      1   2   3     2.563896014896   111.14549286   179.99813301
 F      1   2   3     2.556745201691   112.36669855    60.51910615
 F      2   1   3     2.576012237295   110.08703806   238.13662356
 F      2   1   3     2.576018283394   110.08686589   121.86381932
 F      3   2   1     2.576028110388   110.65828248   301.51569296
 F      3   2   1     2.576019527989   110.65875720    58.47637322
 F      4   3   2     2.556749651158   112.36594309   299.47691483
 F      4   3   2     2.556735899499   112.36662051    60.51887449
 F      4   3   2     2.563894906066   111.14537293   179.99854722

---------------------
BASIS SET INFORMATION
---------------------
There are 2 groups of distinct atoms

 Group   1 Type C   : 11s6p2d1f contracted to 5s3p2d1f pattern {62111/411/11/1}
 Group   2 Type F   : 11s6p2d1f contracted to 5s3p2d1f pattern {62111/411/11/1}

Atom   0C    basis set group =>   1
Atom   1C    basis set group =>   1
Atom   2C    basis set group =>   1
Atom   3C    basis set group =>   1
Atom   4F    basis set group =>   2
Atom   5F    basis set group =>   2
Atom   6F    basis set group =>   2
Atom   7F    basis set group =>   2
Atom   8F    basis set group =>   2
Atom   9F    basis set group =>   2
Atom  10F    basis set group =>   2
Atom  11F    basis set group =>   2
Atom  12F    basis set group =>   2
Atom  13F    basis set group =>   2
---------------------------------
AUXILIARY/J BASIS SET INFORMATION
---------------------------------
There are 2 groups of distinct atoms

 Group   1 Type C   : 12s5p4d2f1g contracted to 6s4p3d1f1g pattern {711111/2111/211/2/1}
 Group   2 Type F   : 12s5p4d2f1g contracted to 6s4p3d1f1g pattern {711111/2111/211/2/1}

Atom   0C    basis set group =>   1
Atom   1C    basis set group =>   1
Atom   2C    basis set group =>   1
Atom   3C    basis set group =>   1
Atom   4F    basis set group =>   2
Atom   5F    basis set group =>   2
Atom   6F    basis set group =>   2
Atom   7F    basis set group =>   2
Atom   8F    basis set group =>   2
Atom   9F    basis set group =>   2
Atom  10F    basis set group =>   2
Atom  11F    basis set group =>   2
Atom  12F    basis set group =>   2
Atom  13F    basis set group =>   2


           ************************************************************
           *        Program running with 8 parallel MPI-processes     *
           *              working on a common directory               *
           ************************************************************
------------------------------------------------------------------------------
                           ORCA GTO INTEGRAL CALCULATION
                           -- RI-GTO INTEGRALS CHOSEN --
------------------------------------------------------------------------------
------------------------------------------------------------------------------
                   ___                                                        
                  /   \      - P O W E R E D   B Y -                         
                 /     \                                                     
                 |  |  |   _    _      __       _____    __    __             
                 |  |  |  | |  | |    /  \     |  _  \  |  |  /  |          
                  \  \/   | |  | |   /    \    | | | |  |  | /  /          
                 / \  \   | |__| |  /  /\  \   | |_| |  |  |/  /          
                |  |  |   |  __  | /  /__\  \  |    /   |      \           
                |  |  |   | |  | | |   __   |  |    \   |  |\   \          
                \     /   | |  | | |  |  |  |  | |\  \  |  | \   \       
                 \___/    |_|  |_| |__|  |__|  |_| \__\ |__|  \__/        
                                                                              
                      - O R C A' S   B I G   F R I E N D -                    
                                      &                                       
                       - I N T E G R A L  F E E D E R -                       
                                                                              
 v1 FN, 2020, v2 2021                                                         
------------------------------------------------------------------------------


Reading SHARK input file Atom1.SHARKINP.tmp ... ok
----------------------
SHARK INTEGRAL PACKAGE
----------------------

Number of atoms                             ...     14
Number of basis functions                   ...    434
Number of shells                            ...    154
Maximum angular momentum                    ...      3
Integral batch strategy                     ... SHARK/LIBINT Hybrid
RI-J (if used) integral strategy            ... SPLIT-RIJ (Revised 2003 algorithm where possible)
Printlevel                                  ...      1
Contraction scheme used                     ... SEGMENTED contraction
Coulomb Range Separation                    ... NOT USED
Exchange Range Separation                   ... NOT USED
Finite Nucleus Model                        ... NOT USED
Auxiliary Coulomb fitting basis             ... AVAILABLE
   # of basis functions in Aux-J            ...    686
   # of shells in Aux-J                     ...    210
   Maximum angular momentum in Aux-J        ...      4
Auxiliary J/K fitting basis                 ... NOT available
Auxiliary Correlation fitting basis         ... NOT available
Auxiliary 'external' fitting basis          ... NOT available
Integral threshold                          ...     2.500000e-11
Primitive cut-off                           ...     2.500000e-12
Primitive pair pre-selection threshold      ...     2.500000e-12

Calculating pre-screening integrals         ... done (  0.0 sec) Dimension = 154
Organizing shell pair data                  ... done (  0.1 sec)
Shell pair information
Total number of shell pairs                 ...     11935
Shell pairs after pre-screening             ...      9579
Total number of primitive shell pairs       ...     39648
Primitive shell pairs kept                  ...     21591
          la=0 lb=0:   1800 shell pairs
          la=1 lb=0:   2518 shell pairs
          la=1 lb=1:    847 shell pairs
          la=2 lb=0:   1468 shell pairs
          la=2 lb=1:   1024 shell pairs
          la=2 lb=2:    326 shell pairs
          la=3 lb=0:    696 shell pairs
          la=3 lb=1:    512 shell pairs
          la=3 lb=2:    308 shell pairs
          la=3 lb=3:     80 shell pairs

Calculating one electron integrals          ... done (  0.0 sec)
Calculating RI/J V-Matrix + Cholesky decomp.... done (  0.0 sec)
Calculating Nuclear repulsion               ... done (  0.0 sec) ENN=   1193.333692000475 Eh

SHARK setup successfully completed in   0.2 seconds

Maximum memory used throughout the entire GTOINT-calculation: 22.1 MB


           ************************************************************
           *        Program running with 8 parallel MPI-processes     *
           *              working on a common directory               *
           ************************************************************
-------------------------------------------------------------------------------
                                 ORCA SCF
-------------------------------------------------------------------------------

------------
SCF SETTINGS
------------
Hamiltonian:
 Density Functional     Method          .... DFT(GTOs)
 Exchange Functional    Exchange        .... B88
   X-Alpha parameter    XAlpha          ....  0.666667
   Becke's b parameter  XBeta           ....  0.004200
 Correlation Functional Correlation     .... LYP
 LDA part of GGA corr.  LDAOpt          .... VWN-5
 Gradients option       PostSCFGGA      .... off
 Hybrid DFT is turned on
   Fraction HF Exchange ScalHFX         ....  0.200000
   Scaling of DF-GGA-X  ScalDFX         ....  0.720000
   Scaling of DF-GGA-C  ScalDFC         ....  0.810000
   Scaling of DF-LDA-C  ScalLDAC        ....  1.000000
   Perturbative correction              ....  0.000000
   Density functional embedding theory  .... OFF
   NL short-range parameter             ....  4.800000
 RI-approximation to the Coulomb term is turned on
   Number of AuxJ basis functions       .... 686
   RIJ-COSX (HFX calculated with COS-X)).... on


General Settings:
 Integral files         IntName         .... Atom1
 Hartree-Fock type      HFTyp           .... RHF
 Total Charge           Charge          ....    0
 Multiplicity           Mult            ....    1
 Number of Electrons    NEL             ....  114
 Basis Dimension        Dim             ....  434
 Nuclear Repulsion      ENuc            ....   1193.3336920005 Eh

Convergence Acceleration:
 DIIS                   CNVDIIS         .... on
   Start iteration      DIISMaxIt       ....    12
   Startup error        DIISStart       ....  0.200000
   # of expansion vecs  DIISMaxEq       ....     5
   Bias factor          DIISBfac        ....   1.050
   Max. coefficient     DIISMaxC        ....  10.000
 Trust-Rad. Augm. Hess. CNVTRAH         .... auto
   Auto Start mean grad. ratio tolernc. ....  1.125000
   Auto Start start iteration           ....    20
   Auto Start num. interpolation iter.  ....    10
   Max. Number of Micro iterations      ....    16
   Max. Number of Macro iterations      .... Maxiter - #DIIS iter
   Number of Davidson start vectors     ....     2
   Converg. threshold I  (grad. norm)   ....   1.000e-05
   Converg. threshold II (energy diff.) ....   1.000e-08
   Grad. Scal. Fac. for Micro threshold ....   0.100
   Minimum threshold for Micro iter.    ....   0.010
   NR start threshold (gradient norm)   ....   0.001
   Initial trust radius                 ....   0.400
   Minimum AH scaling param. (alpha)    ....   1.000
   Maximum AH scaling param. (alpha)    .... 1000.000
   Orbital update algorithm             .... Taylor
   White noise on init. David. guess    .... on
   Maximum white noise                  ....   0.010
   Quad. conv. algorithm                .... NR
 SOSCF                  CNVSOSCF        .... on
   Start iteration      SOSCFMaxIt      ....   150
   Startup grad/error   SOSCFStart      ....  0.003300
 Level Shifting         CNVShift        .... on
   Level shift para.    LevelShift      ....    0.2500
   Turn off err/grad.   ShiftErr        ....    0.0010
 Zerner damping         CNVZerner       .... off
 Static damping         CNVDamp         .... on
   Fraction old density DampFac         ....    0.7000
   Max. Damping (<1)    DampMax         ....    0.9800
   Min. Damping (>=0)   DampMin         ....    0.0000
   Turn off err/grad.   DampErr         ....    0.1000
 Fernandez-Rico         CNVRico         .... off

SCF Procedure:
 Maximum # iterations   MaxIter         ....   125
 SCF integral mode      SCFMode         .... Direct
   Integral package                     .... SHARK and LIBINT hybrid scheme
 Reset frequency        DirectResetFreq ....    20
 Integral Threshold     Thresh          ....  2.500e-11 Eh
 Primitive CutOff       TCut            ....  2.500e-12 Eh

Convergence Tolerance:
 Convergence Check Mode ConvCheckMode   .... Total+1el-Energy
 Convergence forced     ConvForced      .... 0
 Energy Change          TolE            ....  1.000e-08 Eh
 1-El. energy change                    ....  1.000e-05 Eh
 Orbital Gradient       TolG            ....  1.000e-05
 Orbital Rotation angle TolX            ....  1.000e-05
 DIIS Error             TolErr          ....  5.000e-07


Diagonalization of the overlap matrix:
Smallest eigenvalue                        ... 1.483e-04
Time for diagonalization                   ...    0.020 sec
Threshold for overlap eigenvalues          ... 1.000e-08
Number of eigenvalues below threshold      ... 0
Time for construction of square roots      ...    0.010 sec
Total time needed                          ...    0.032 sec

Time for model grid setup =    0.062 sec

------------------------------
INITIAL GUESS: MODEL POTENTIAL
------------------------------
Loading Hartree-Fock densities                     ... done
Calculating cut-offs                               ... done
Initializing the effective Hamiltonian             ... done
Setting up the integral package (SHARK)            ... done
Starting the Coulomb interaction                   ... done (   0.0 sec)
Reading the grid                                   ... done
Mapping shells                                     ... done
Starting the XC term evaluation                    ... done (   0.1 sec)
  promolecular density results
     # of electrons  =    114.001909431
     EX              =   -121.147640308
     EC              =     -4.321474617
     EX+EC           =   -125.469114926
Transforming the Hamiltonian                       ... done (   0.0 sec)
Diagonalizing the Hamiltonian                      ... done (   0.0 sec)
Back transforming the eigenvectors                 ... done (   0.0 sec)
Now organizing SCF variables                       ... done
                      ------------------
                      INITIAL GUESS DONE (   0.2 sec)
                      ------------------
-------------------
DFT GRID GENERATION
-------------------

General Integration Accuracy     IntAcc      ... 4.388
Radial Grid Type                 RadialGrid  ... OptM3 with GC (2021)
Angular Grid (max. ang.)         AngularGrid ... 4 (Lebedev-302)
Angular grid pruning method      GridPruning ... 4 (adaptive)
Weight generation scheme         WeightScheme... Becke
Basis function cutoff            BFCut       ... 1.0000e-11
Integration weight cutoff        WCut        ... 1.0000e-14
Angular grids for H and He will be reduced by one unit
Partially contracted basis set               ... off
Rotationally invariant grid construction     ... off

Total number of grid points                  ...    85096
Total number of batches                      ...     1338
Average number of points per batch           ...       63
Average number of grid points per atom       ...     6078
Time for grid setup =    0.352 sec

--------------------
COSX GRID GENERATION
--------------------

GRIDX 1
-------
General Integration Accuracy     IntAcc      ... 3.816
Radial Grid Type                 RadialGrid  ... OptM3 with GC (2021)
Angular Grid (max. ang.)         AngularGrid ... 1 (Lebedev-50)
Angular grid pruning method      GridPruning ... 4 (adaptive)
Weight generation scheme         WeightScheme... Becke
Basis function cutoff            BFCut       ... 1.0000e-11
Integration weight cutoff        WCut        ... 1.0000e-14
Angular grids for H and He will be reduced by one unit
Partially contracted basis set               ... on
Rotationally invariant grid construction     ... off

Total number of grid points                  ...    10660
Total number of batches                      ...      174
Average number of points per batch           ...       61
Average number of grid points per atom       ...      761
UseSFitting                                  ... on

GRIDX 2
-------
General Integration Accuracy     IntAcc      ... 4.020
Radial Grid Type                 RadialGrid  ... OptM3 with GC (2021)
Angular Grid (max. ang.)         AngularGrid ... 2 (Lebedev-110)
Angular grid pruning method      GridPruning ... 4 (adaptive)
Weight generation scheme         WeightScheme... Becke
Basis function cutoff            BFCut       ... 1.0000e-11
Integration weight cutoff        WCut        ... 1.0000e-14
Angular grids for H and He will be reduced by one unit
Partially contracted basis set               ... on
Rotationally invariant grid construction     ... off

Total number of grid points                  ...    25487
Total number of batches                      ...      406
Average number of points per batch           ...       62
Average number of grid points per atom       ...     1820
UseSFitting                                  ... on

GRIDX 3
-------
General Integration Accuracy     IntAcc      ... 4.338
Radial Grid Type                 RadialGrid  ... OptM3 with GC (2021)
Angular Grid (max. ang.)         AngularGrid ... 3 (Lebedev-194)
Angular grid pruning method      GridPruning ... 4 (adaptive)
Weight generation scheme         WeightScheme... Becke
Basis function cutoff            BFCut       ... 1.0000e-11
Integration weight cutoff        WCut        ... 1.0000e-14
Angular grids for H and He will be reduced by one unit
Partially contracted basis set               ... on
Rotationally invariant grid construction     ... off

Total number of grid points                  ...    56664
Total number of batches                      ...      890
Average number of points per batch           ...       63
Average number of grid points per atom       ...     4047
UseSFitting                                  ... on

Time for X-Grid setup             =    0.340 sec

--------------
SCF ITERATIONS
--------------
ITER       Energy         Delta-E        Max-DP      RMS-DP      [F,P]     Damp
               ***  Starting incremental Fock matrix formation  ***
  0  -1150.6281827517   0.000000000000 0.03281975  0.00078726  0.1604500 0.7000
  1  -1150.7622226069  -0.134039855192 0.01768734  0.00041043  0.0608183 0.7000
                               ***Turning on DIIS***
  2  -1150.8022749568  -0.040052349912 0.03649326  0.00046475  0.0153310 0.0000
  3  -1150.8923121005  -0.090037143768 0.01031268  0.00024931  0.0244644 0.0000
  4  -1150.8995583571  -0.007246256591 0.00642221  0.00008918  0.0065812 0.0000
                      *** Initiating the SOSCF procedure ***
                           *** Shutting down DIIS ***
                      *** Re-Reading the Fockian *** 
                      *** Removing any level shift *** 
ITER      Energy       Delta-E        Grad      Rot      Max-DP    RMS-DP
  5  -1150.89999232  -0.0004339634  0.000556  0.000556  0.002709  0.000028
               *** Restarting incremental Fock matrix formation ***
  6  -1150.90005301  -0.0000606919  0.000391  0.000544  0.000694  0.000013
  7  -1150.90004565   0.0000073612  0.000635  0.000384  0.000421  0.000008
  8  -1150.90005819  -0.0000125433  0.000032  0.000046  0.000091  0.000002
  9  -1150.90005817   0.0000000274  0.000043  0.000026  0.000035  0.000001
 10  -1150.90005823  -0.0000000625  0.000003  0.000004  0.000024  0.000000
                  ***Gradient check signals convergence***
              ***Rediagonalizing the Fockian in SOSCF/NRSCF***

               *****************************************************
               *                     SUCCESS                       *
               *           SCF CONVERGED AFTER  11 CYCLES          *
               *****************************************************

Old exchange energy                            =    -24.259122507 Eh
New exchange energy                            =    -24.259125444 Eh
Exchange energy change after final integration =     -0.000002937 Eh
Total energy after final integration           =  -1150.900061167 Eh
Final COS-X integration done in                =     3.745 sec

----------------
TOTAL SCF ENERGY
----------------

Total Energy       :        -1151.03094171 Eh          -31321.14426 eV
SCF Energy         :        -1150.90006117 Eh          -31317.58282 eV
External Potential :           -0.13088054 Eh              -3.56144 eV

Components:
Nuclear Repulsion  :         1193.33369200 Eh           32472.26062 eV
External Potential :           -0.13088054 Eh              -3.56144 eV
Electronic Energy  :        -2344.23375317 Eh          -63789.84344 eV
One Electron Energy:        -3974.23817049 Eh         -108144.51858 eV
Two Electron Energy:         1630.00441732 Eh           44354.67514 eV
Max COSX asymmetry :            0.00000270 Eh               0.00007 eV

Virial components:
Potential Energy   :        -2297.89125234 Eh          -62528.79988 eV
Kinetic Energy     :         1146.99119117 Eh           31211.21706 eV
Virial Ratio       :            2.00340793


DFT components:
N(Alpha)           :       56.999961258455 electrons
N(Beta)            :       56.999961258455 electrons
N(Total)           :      113.999922516909 electrons
E(X)               :      -96.687142555397 Eh       
E(C)               :       -5.046070534780 Eh       
E(XC)              :     -101.733213090177 Eh       
DFET-embed. en.    :        0.000000000000 Eh       

---------------
SCF CONVERGENCE
---------------

  Last Energy change         ...   -1.0045e-09  Tolerance :   1.0000e-08
  Last MAX-Density change    ...    1.6653e-15  Tolerance :   1.0000e-07
  Last RMS-Density change    ...    2.0017e-17  Tolerance :   5.0000e-09
  Last Orbital Gradient      ...    2.4300e-06  Tolerance :   1.0000e-05
  Last Orbital Rotation      ...    1.5632e-06  Tolerance :   1.0000e-05

             **** THE GBW FILE WAS UPDATED (Atom1.gbw) ****
             **** DENSITY Atom1.scfp WAS UPDATED ****
             **** ENERGY FILE WAS UPDATED (Atom1.en.tmp) ****
             **** THE GBW FILE WAS UPDATED (Atom1.gbw) ****
             **** DENSITY Atom1.scfp WAS UPDATED ****
----------------
ORBITAL ENERGIES
----------------

  NO   OCC          E(Eh)            E(eV) 
   0   2.0000     -24.757998      -673.6994 
   1   2.0000     -24.757996      -673.6993 
   2   2.0000     -24.757982      -673.6989 
   3   2.0000     -24.757980      -673.6989 
   4   2.0000     -24.752265      -673.5434 
   5   2.0000     -24.752261      -673.5433 
   6   2.0000     -24.752254      -673.5431 
   7   2.0000     -24.752251      -673.5430 
   8   2.0000     -24.748108      -673.4303 
   9   2.0000     -24.748107      -673.4302 
  10   2.0000     -10.474352      -285.0216 
  11   2.0000     -10.474347      -285.0215 
  12   2.0000     -10.425890      -283.7029 
  13   2.0000     -10.425643      -283.6962 
  14   2.0000      -1.358991       -36.9800 
  15   2.0000      -1.350890       -36.7596 
  16   2.0000      -1.326274       -36.0897 
  17   2.0000      -1.318751       -35.8851 
  18   2.0000      -1.275510       -34.7084 
  19   2.0000      -1.264112       -34.3982 
  20   2.0000      -1.259767       -34.2800 
  21   2.0000      -1.259665       -34.2772 
  22   2.0000      -1.258869       -34.2556 
  23   2.0000      -1.257702       -34.2238 
  24   2.0000      -0.886940       -24.1349 
  25   2.0000      -0.822168       -22.3723 
  26   2.0000      -0.737001       -20.0548 
  27   2.0000      -0.704168       -19.1614 
  28   2.0000      -0.668251       -18.1840 
  29   2.0000      -0.662224       -18.0200 
  30   2.0000      -0.652631       -17.7590 
  31   2.0000      -0.635806       -17.3012 
  32   2.0000      -0.634819       -17.2743 
  33   2.0000      -0.625922       -17.0322 
  34   2.0000      -0.612829       -16.6759 
  35   2.0000      -0.610578       -16.6147 
  36   2.0000      -0.593595       -16.1525 
  37   2.0000      -0.530252       -14.4289 
  38   2.0000      -0.520592       -14.1660 
  39   2.0000      -0.518190       -14.1007 
  40   2.0000      -0.513889       -13.9836 
  41   2.0000      -0.512778       -13.9534 
  42   2.0000      -0.504848       -13.7376 
  43   2.0000      -0.499049       -13.5798 
  44   2.0000      -0.496555       -13.5119 
  45   2.0000      -0.485505       -13.2113 
  46   2.0000      -0.478202       -13.0125 
  47   2.0000      -0.472222       -12.8498 
  48   2.0000      -0.468024       -12.7356 
  49   2.0000      -0.461121       -12.5478 
  50   2.0000      -0.460835       -12.5399 
  51   2.0000      -0.460667       -12.5354 
  52   2.0000      -0.457387       -12.4461 
  53   2.0000      -0.448981       -12.2174 
  54   2.0000      -0.447363       -12.1734 
  55   2.0000      -0.444929       -12.1071 
  56   2.0000      -0.391841       -10.6625 
  57   0.0000      -0.027749        -0.7551 
  58   0.0000      -0.006517        -0.1773 
  59   0.0000       0.044928         1.2225 
  60   0.0000       0.072323         1.9680 
  61   0.0000       0.091318         2.4849 
  62   0.0000       0.108378         2.9491 
  63   0.0000       0.135623         3.6905 
  64   0.0000       0.141721         3.8564 
  65   0.0000       0.158914         4.3243 
  66   0.0000       0.167960         4.5704 
  67   0.0000       0.190202         5.1756 
  68   0.0000       0.196012         5.3338 
  69   0.0000       0.196049         5.3348 
  70   0.0000       0.202608         5.5132 
  71   0.0000       0.205465         5.5910 
  72   0.0000       0.206432         5.6173 
  73   0.0000       0.226396         6.1605 
  74   0.0000       0.231900         6.3103 
  75   0.0000       0.233199         6.3457 
  76   0.0000       0.238408         6.4874 
  77   0.0000       0.268011         7.2929 
  78   0.0000       0.283344         7.7102 
  79   0.0000       0.290160         7.8956 
  80   0.0000       0.293959         7.9990 
  81   0.0000       0.300907         8.1881 
  82   0.0000       0.310666         8.4536 
  83   0.0000       0.326032         8.8718 
  84   0.0000       0.384601        10.4655 
  85   0.0000       0.416580        11.3357 
  86   0.0000       0.433527        11.7969 
  87   0.0000       0.435837        11.8597 
  88   0.0000       0.445966        12.1354 
  89   0.0000       0.465056        12.6548 
  90   0.0000       0.468476        12.7479 
  91   0.0000       0.497936        13.5495 
  92   0.0000       0.501264        13.6401 
  93   0.0000       0.517498        14.0818 
  94   0.0000       0.543378        14.7861 
  95   0.0000       0.575084        15.6488 
  96   0.0000       0.597704        16.2644 
  97   0.0000       0.601869        16.3777 
  98   0.0000       0.612221        16.6594 
  99   0.0000       0.653844        17.7920 
 100   0.0000       0.656663        17.8687 
 101   0.0000       0.666651        18.1405 
 102   0.0000       0.681496        18.5445 
 103   0.0000       0.685194        18.6451 
 104   0.0000       0.696264        18.9463 
 105   0.0000       0.718643        19.5553 
 106   0.0000       0.720616        19.6090 
 107   0.0000       0.721960        19.6455 
 108   0.0000       0.736543        20.0423 
 109   0.0000       0.746783        20.3210 
 110   0.0000       0.754318        20.5260 
 111   0.0000       0.757370        20.6091 
 112   0.0000       0.765264        20.8239 
 113   0.0000       0.778465        21.1831 
 114   0.0000       0.796317        21.6689 
 115   0.0000       0.798282        21.7224 
 116   0.0000       0.811794        22.0900 
 117   0.0000       0.815200        22.1827 
 118   0.0000       0.857905        23.3448 
 119   0.0000       0.873330        23.7645 
 120   0.0000       0.873576        23.7712 
 121   0.0000       0.890898        24.2426 
 122   0.0000       0.901155        24.5217 
 123   0.0000       0.919441        25.0192 
 124   0.0000       0.942823        25.6555 
 125   0.0000       0.958090        26.0710 
 126   0.0000       0.970723        26.4147 
 127   0.0000       1.010046        27.4848 
 128   0.0000       1.010453        27.4958 
 129   0.0000       1.031008        28.0551 
 130   0.0000       1.042273        28.3617 
 131   0.0000       1.085519        29.5385 
 132   0.0000       1.116608        30.3845 
 133   0.0000       1.119137        30.4533 
 134   0.0000       1.123634        30.5756 
 135   0.0000       1.124580        30.6014 
 136   0.0000       1.184815        32.2405 
 137   0.0000       1.194349        32.4999 
 138   0.0000       1.201692        32.6997 
 139   0.0000       1.207558        32.8593 
 140   0.0000       1.223171        33.2842 
 141   0.0000       1.273019        34.6406 
 142   0.0000       1.280373        34.8407 
 143   0.0000       1.313465        35.7412 
 144   0.0000       1.335601        36.3436 
 145   0.0000       1.404057        38.2063 
 146   0.0000       1.407506        38.3002 
 147   0.0000       1.522121        41.4190 
 148   0.0000       1.550381        42.1880 
 149   0.0000       1.656250        45.0688 
 150   0.0000       1.658475        45.1294 
 151   0.0000       1.683874        45.8205 
 152   0.0000       1.696207        46.1561 
 153   0.0000       1.733801        47.1791 
 154   0.0000       1.766352        48.0649 
 155   0.0000       1.766700        48.0744 
 156   0.0000       1.769573        48.1525 
 157   0.0000       1.778339        48.3911 
 158   0.0000       1.798472        48.9389 
 159   0.0000       1.849810        50.3359 
 160   0.0000       1.859671        50.6042 
 161   0.0000       1.860376        50.6234 
 162   0.0000       1.889395        51.4131 
 163   0.0000       1.905350        51.8472 
 164   0.0000       1.910802        51.9956 
 165   0.0000       1.915481        52.1229 
 166   0.0000       1.932260        52.5795 
 167   0.0000       1.937642        52.7259 
 168   0.0000       1.948060        53.0094 
 169   0.0000       1.992568        54.2205 
 170   0.0000       2.014324        54.8126 
 171   0.0000       2.041799        55.5602 
 172   0.0000       2.070121        56.3309 
 173   0.0000       2.070289        56.3354 
 174   0.0000       2.082092        56.6566 
 175   0.0000       2.096045        57.0363 
 176   0.0000       2.097403        57.0732 
 177   0.0000       2.110746        57.4363 
 178   0.0000       2.140670        58.2506 
 179   0.0000       2.199726        59.8576 
 180   0.0000       2.209536        60.1245 
 181   0.0000       2.218375        60.3651 
 182   0.0000       2.220642        60.4267 
 183   0.0000       2.229290        60.6621 
 184   0.0000       2.270406        61.7809 
 185   0.0000       2.275614        61.9226 
 186   0.0000       2.340301        63.6828 
 187   0.0000       2.358401        64.1753 
 188   0.0000       2.363135        64.3042 
 189   0.0000       2.374045        64.6010 
 190   0.0000       2.412408        65.6450 
 191   0.0000       2.417490        65.7832 
 192   0.0000       2.435009        66.2600 
 193   0.0000       2.438605        66.3578 
 194   0.0000       2.455968        66.8303 
 195   0.0000       2.463216        67.0275 
 196   0.0000       2.477608        67.4191 
 197   0.0000       2.479456        67.4694 
 198   0.0000       2.489306        67.7375 
 199   0.0000       2.505786        68.1859 
 200   0.0000       2.548488        69.3479 
 201   0.0000       2.555186        69.5302 
 202   0.0000       2.591669        70.5229 
 203   0.0000       2.628167        71.5160 
 204   0.0000       2.636331        71.7382 
 205   0.0000       2.661364        72.4194 
 206   0.0000       2.713507        73.8383 
 207   0.0000       2.717833        73.9560 
 208   0.0000       2.740375        74.5694 
 209   0.0000       2.745935        74.7207 
 210   0.0000       2.823365        76.8277 
 211   0.0000       2.830245        77.0149 
 212   0.0000       2.866641        78.0053 
 213   0.0000       2.893868        78.7461 
 214   0.0000       2.940740        80.0216 
 215   0.0000       2.941253        80.0356 
 216   0.0000       2.954313        80.3910 
 217   0.0000       2.972377        80.8825 
 218   0.0000       2.972741        80.8924 
 219   0.0000       2.992117        81.4196 
 220   0.0000       2.993481        81.4568 
 221   0.0000       3.010680        81.9248 
 222   0.0000       3.014422        82.0266 
 223   0.0000       3.053135        83.0800 
 224   0.0000       3.059354        83.2493 
 225   0.0000       3.075822        83.6974 
 226   0.0000       3.077231        83.7357 
 227   0.0000       3.086945        84.0001 
 228   0.0000       3.101771        84.4035 
 229   0.0000       3.118210        84.8508 
 230   0.0000       3.127787        85.1114 
 231   0.0000       3.145052        85.5812 
 232   0.0000       3.171584        86.3032 
 233   0.0000       3.177899        86.4750 
 234   0.0000       3.185847        86.6913 
 235   0.0000       3.221436        87.6597 
 236   0.0000       3.228794        87.8600 
 237   0.0000       3.238386        88.1210 
 238   0.0000       3.244666        88.2918 
 239   0.0000       3.266765        88.8932 
 240   0.0000       3.301135        89.8285 
 241   0.0000       3.331251        90.6480 
 242   0.0000       3.332484        90.6815 
 243   0.0000       3.420854        93.0862 
 244   0.0000       3.428456        93.2930 
 245   0.0000       3.458467        94.1097 
 246   0.0000       3.469750        94.4167 
 247   0.0000       3.528465        96.0144 
 248   0.0000       3.528477        96.0148 
 249   0.0000       3.539769        96.3220 
 250   0.0000       3.580061        97.4184 
 251   0.0000       3.618496        98.4643 
 252   0.0000       3.630494        98.7908 
 253   0.0000       3.667330        99.7931 
 254   0.0000       3.725211       101.3682 
 255   0.0000       3.753023       102.1249 
 256   0.0000       3.763515       102.4104 
 257   0.0000       3.785545       103.0099 
 258   0.0000       3.831782       104.2681 
 259   0.0000       3.837753       104.4306 
 260   0.0000       3.851891       104.8153 
 261   0.0000       3.877728       105.5183 
 262   0.0000       3.878418       105.5371 
 263   0.0000       3.884693       105.7079 
 264   0.0000       3.896381       106.0259 
 265   0.0000       3.897168       106.0473 
 266   0.0000       3.914184       106.5104 
 267   0.0000       3.915615       106.5493 
 268   0.0000       3.916366       106.5697 
 269   0.0000       3.929741       106.9337 
 270   0.0000       3.949547       107.4726 
 271   0.0000       3.971145       108.0604 
 272   0.0000       4.013533       109.2138 
 273   0.0000       4.023692       109.4902 
 274   0.0000       4.033238       109.7500 
 275   0.0000       4.037055       109.8538 
 276   0.0000       4.051176       110.2381 
 277   0.0000       4.068878       110.7198 
 278   0.0000       4.089436       111.2792 
 279   0.0000       4.092055       111.3505 
 280   0.0000       4.113955       111.9464 
 281   0.0000       4.153212       113.0146 
 282   0.0000       4.186607       113.9234 
 283   0.0000       4.218390       114.7882 
 284   0.0000       4.221466       114.8719 
 285   0.0000       4.271291       116.2277 
 286   0.0000       4.371399       118.9518 
 287   0.0000       4.460732       121.3827 
 288   0.0000       4.789074       130.3173 
 289   0.0000       4.839651       131.6936 
 290   0.0000       5.008472       136.2875 
 291   0.0000       5.052218       137.4778 
 292   0.0000       5.125908       139.4830 
 293   0.0000       5.165892       140.5711 
 294   0.0000       5.183730       141.0565 
 295   0.0000       5.297195       144.1440 
 296   0.0000       5.307231       144.4171 
 297   0.0000       5.366457       146.0287 
 298   0.0000       5.443049       148.1129 
 299   0.0000       5.562845       151.3727 
 300   0.0000       6.758765       183.9154 
 301   0.0000       6.758874       183.9183 
 302   0.0000       6.788071       184.7128 
 303   0.0000       6.789001       184.7381 
 304   0.0000       6.795527       184.9157 
 305   0.0000       6.795655       184.9192 
 306   0.0000       6.796173       184.9333 
 307   0.0000       6.796434       184.9404 
 308   0.0000       6.797369       184.9658 
 309   0.0000       6.799533       185.0247 
 310   0.0000       6.799760       185.0309 
 311   0.0000       6.800608       185.0539 
 312   0.0000       6.801302       185.0728 
 313   0.0000       6.801452       185.0769 
 314   0.0000       6.803233       185.1254 
 315   0.0000       6.803882       185.1430 
 316   0.0000       6.805229       185.1797 
 317   0.0000       6.807823       185.2503 
 318   0.0000       6.808789       185.2766 
 319   0.0000       6.809046       185.2836 
 320   0.0000       6.809327       185.2912 
 321   0.0000       6.810187       185.3146 
 322   0.0000       6.810568       185.3250 
 323   0.0000       6.814743       185.4386 
 324   0.0000       6.822493       185.6495 
 325   0.0000       6.822891       185.6603 
 326   0.0000       6.826663       185.7629 
 327   0.0000       6.831229       185.8872 
 328   0.0000       6.833168       185.9399 
 329   0.0000       6.857026       186.5892 
 330   0.0000       6.906698       187.9408 
 331   0.0000       6.912045       188.0863 
 332   0.0000       6.916334       188.2030 
 333   0.0000       6.929286       188.5555 
 334   0.0000       6.941585       188.8901 
 335   0.0000       6.945027       188.9838 
 336   0.0000       6.948284       189.0724 
 337   0.0000       6.956901       189.3069 
 338   0.0000       6.964978       189.5267 
 339   0.0000       6.982079       189.9920 
 340   0.0000       6.996120       190.3741 
 341   0.0000       6.997888       190.4222 
 342   0.0000       7.001897       190.5313 
 343   0.0000       7.010066       190.7536 
 344   0.0000       7.020129       191.0274 
 345   0.0000       7.030355       191.3057 
 346   0.0000       7.063633       192.2112 
 347   0.0000       7.076310       192.5562 
 348   0.0000       7.096936       193.1174 
 349   0.0000       7.124546       193.8687 
 350   0.0000       7.169680       195.0969 
 351   0.0000       7.209990       196.1938 
 352   0.0000       7.225896       196.6266 
 353   0.0000       7.245307       197.1548 
 354   0.0000       7.275636       197.9801 
 355   0.0000       7.293715       198.4721 
 356   0.0000       7.295018       198.5075 
 357   0.0000       7.311309       198.9508 
 358   0.0000       7.340634       199.7488 
 359   0.0000       7.345974       199.8941 
 360   0.0000       7.376743       200.7314 
 361   0.0000       7.377430       200.7501 
 362   0.0000       7.401944       201.4171 
 363   0.0000       7.413241       201.7245 
 364   0.0000       7.452960       202.8054 
 365   0.0000       7.486335       203.7135 
 366   0.0000       7.529003       204.8746 
 367   0.0000       7.539692       205.1654 
 368   0.0000       7.559668       205.7090 
 369   0.0000       7.566242       205.8879 
 370   0.0000       8.225857       223.8370 
 371   0.0000       8.230490       223.9630 
 372   0.0000       8.234560       224.0738 
 373   0.0000       8.237711       224.1595 
 374   0.0000       8.239290       224.2025 
 375   0.0000       8.240985       224.2486 
 376   0.0000       8.263300       224.8558 
 377   0.0000       8.265406       224.9131 
 378   0.0000       8.335172       226.8115 
 379   0.0000       8.337924       226.8865 
 380   0.0000       8.340583       226.9588 
 381   0.0000       8.369428       227.7437 
 382   0.0000       8.401064       228.6046 
 383   0.0000       8.413764       228.9502 
 384   0.0000       8.419087       229.0950 
 385   0.0000       8.422028       229.1750 
 386   0.0000       8.429113       229.3678 
 387   0.0000       8.496585       231.2038 
 388   0.0000       8.501464       231.3366 
 389   0.0000       8.518772       231.8076 
 390   0.0000       8.604444       234.1388 
 391   0.0000       8.612403       234.3554 
 392   0.0000       8.641386       235.1441 
 393   0.0000       8.665504       235.8003 
 394   0.0000       8.690884       236.4910 
 395   0.0000       8.716923       237.1995 
 396   0.0000       8.739922       237.8254 
 397   0.0000       8.760607       238.3882 
 398   0.0000       8.771912       238.6959 
 399   0.0000       8.818015       239.9504 
 400   0.0000       8.843846       240.6533 
 401   0.0000       8.862540       241.1620 
 402   0.0000       8.874374       241.4840 
 403   0.0000       8.876422       241.5397 
 404   0.0000       8.878962       241.6088 
 405   0.0000       8.895696       242.0642 
 406   0.0000       8.900097       242.1840 
 407   0.0000       8.901421       242.2200 
 408   0.0000       8.929977       242.9970 
 409   0.0000       8.958358       243.7693 
 410   0.0000       8.959561       243.8020 
 411   0.0000       8.975356       244.2318 
 412   0.0000       8.980404       244.3692 
 413   0.0000       8.993305       244.7203 
 414   0.0000       9.008730       245.1400 
 415   0.0000       9.019123       245.4228 
 416   0.0000       9.044226       246.1059 
 417   0.0000       9.047631       246.1986 
 418   0.0000       9.076994       246.9976 
 419   0.0000       9.078553       247.0400 
 420   0.0000      22.408122       609.7560 
 421   0.0000      22.624860       615.6537 
 422   0.0000      22.653132       616.4231 
 423   0.0000      22.667739       616.8205 
 424   0.0000      57.096653      1553.6789 
 425   0.0000      57.123135      1554.3995 
 426   0.0000      57.125982      1554.4770 
 427   0.0000      57.131430      1554.6252 
 428   0.0000      57.230836      1557.3302 
 429   0.0000      57.240688      1557.5983 
 430   0.0000      57.287815      1558.8807 
 431   0.0000      57.313520      1559.5802 
 432   0.0000      57.370543      1561.1318 
 433   0.0000      57.396458      1561.8370 

                    ********************************
                    * MULLIKEN POPULATION ANALYSIS *
                    ********************************

-----------------------
MULLIKEN ATOMIC CHARGES
-----------------------
   0 C :    0.453049
   1 C :    0.307935
   2 C :    0.307948
   3 C :    0.453043
   4 F :   -0.148422
   5 F :   -0.154713
   6 F :   -0.148453
   7 F :   -0.154661
   8 F :   -0.154738
   9 F :   -0.154739
  10 F :   -0.154661
  11 F :   -0.148456
  12 F :   -0.148420
  13 F :   -0.154712
Sum of atomic charges:   -0.0000000

--------------------------------
MULLIKEN REDUCED ORBITAL CHARGES
--------------------------------
  0 C s       :     3.042409  s :     3.042409
      pz      :     0.632739  p :     2.125559
      px      :     0.789098
      py      :     0.703722
      dz2     :     0.074659  d :     0.339962
      dxz     :     0.073972
      dyz     :     0.064645
      dx2y2   :     0.063923
      dxy     :     0.062763
      f0      :     0.007957  f :     0.039022
      f+1     :     0.004534
      f-1     :     0.005446
      f+2     :     0.004325
      f-2     :     0.007859
      f+3     :     0.005601
      f-3     :     0.003299
  1 C s       :     3.116094  s :     3.116094
      pz      :     0.595193  p :     2.266783
      px      :     0.944790
      py      :     0.726800
      dz2     :     0.075311  d :     0.281742
      dxz     :     0.060180
      dyz     :     0.056763
      dx2y2   :     0.032174
      dxy     :     0.057314
      f0      :     0.005704  f :     0.027445
      f+1     :     0.003505
      f-1     :     0.004927
      f+2     :     0.003820
      f-2     :     0.005194
      f+3     :     0.002338
      f-3     :     0.001958
  2 C s       :     3.116091  s :     3.116091
      pz      :     0.595191  p :     2.266778
      px      :     0.944788
      py      :     0.726799
      dz2     :     0.075312  d :     0.281739
      dxz     :     0.060178
      dyz     :     0.056763
      dx2y2   :     0.032174
      dxy     :     0.057312
      f0      :     0.005704  f :     0.027445
      f+1     :     0.003505
      f-1     :     0.004926
      f+2     :     0.003820
      f-2     :     0.005194
      f+3     :     0.002338
      f-3     :     0.001958
  3 C s       :     3.042415  s :     3.042415
      pz      :     0.632739  p :     2.125557
      px      :     0.789097
      py      :     0.703721
      dz2     :     0.074661  d :     0.339963
      dxz     :     0.073973
      dyz     :     0.064643
      dx2y2   :     0.063923
      dxy     :     0.062763
      f0      :     0.007957  f :     0.039022
      f+1     :     0.004534
      f-1     :     0.005445
      f+2     :     0.004325
      f-2     :     0.007860
      f+3     :     0.005601
      f-3     :     0.003299
  4 F s       :     3.915286  s :     3.915286
      pz      :     1.562639  p :     5.216158
      px      :     1.889659
      py      :     1.763860
      dz2     :     0.005200  d :     0.016258
      dxz     :     0.002562
      dyz     :     0.006061
      dx2y2   :     0.001240
      dxy     :     0.001194
      f0      :     0.000146  f :     0.000720
      f+1     :     0.000070
      f-1     :     0.000278
      f+2     :     0.000109
      f-2     :     0.000089
      f+3     :     0.000016
      f-3     :     0.000013
  5 F s       :     3.915481  s :     3.915481
      pz      :     1.891428  p :     5.222552
      px      :     1.564978
      py      :     1.766146
      dz2     :     0.002323  d :     0.015969
      dxz     :     0.002277
      dyz     :     0.001174
      dx2y2   :     0.003919
      dxy     :     0.006274
      f0      :     0.000059  f :     0.000712
      f+1     :     0.000105
      f-1     :     0.000053
      f+2     :     0.000019
      f-2     :     0.000090
      f+3     :     0.000150
      f-3     :     0.000235
  6 F s       :     3.915300  s :     3.915300
      pz      :     1.639475  p :     5.216174
      px      :     1.894717
      py      :     1.681982
      dz2     :     0.003567  d :     0.016259
      dxz     :     0.001889
      dyz     :     0.006842
      dx2y2   :     0.002226
      dxy     :     0.001734
      f0      :     0.000094  f :     0.000720
      f+1     :     0.000030
      f-1     :     0.000248
      f+2     :     0.000176
      f-2     :     0.000099
      f+3     :     0.000036
      f-3     :     0.000037
  7 F s       :     3.919576  s :     3.919576
      pz      :     1.565813  p :     5.218123
      px      :     1.904527
      py      :     1.747784
      dz2     :     0.004932  d :     0.016275
      dxz     :     0.002569
      dyz     :     0.006144
      dx2y2   :     0.001350
      dxy     :     0.001280
      f0      :     0.000133  f :     0.000687
      f+1     :     0.000061
      f-1     :     0.000268
      f+2     :     0.000110
      f-2     :     0.000086
      f+3     :     0.000016
      f-3     :     0.000013
  8 F s       :     3.919614  s :     3.919614
      pz      :     1.651122  p :     5.218160
      px      :     1.904651
      py      :     1.662387
      dz2     :     0.003313  d :     0.016276
      dxz     :     0.001908
      dyz     :     0.006728
      dx2y2   :     0.002377
      dxy     :     0.001950
      f0      :     0.000085  f :     0.000687
      f+1     :     0.000027
      f-1     :     0.000228
      f+2     :     0.000172
      f-2     :     0.000100
      f+3     :     0.000038
      f-3     :     0.000037
  9 F s       :     3.919613  s :     3.919613
      pz      :     1.651092  p :     5.218163
      px      :     1.904652
      py      :     1.662420
      dz2     :     0.003314  d :     0.016276
      dxz     :     0.001909
      dyz     :     0.006728
      dx2y2   :     0.002376
      dxy     :     0.001949
      f0      :     0.000085  f :     0.000687
      f+1     :     0.000027
      f-1     :     0.000228
      f+2     :     0.000172
      f-2     :     0.000100
      f+3     :     0.000038
      f-3     :     0.000037
 10 F s       :     3.919576  s :     3.919576
      pz      :     1.565838  p :     5.218123
      px      :     1.904527
      py      :     1.747758
      dz2     :     0.004931  d :     0.016275
      dxz     :     0.002569
      dyz     :     0.006145
      dx2y2   :     0.001350
      dxy     :     0.001280
      f0      :     0.000132  f :     0.000687
      f+1     :     0.000061
      f-1     :     0.000268
      f+2     :     0.000110
      f-2     :     0.000086
      f+3     :     0.000016
      f-3     :     0.000013
 11 F s       :     3.915303  s :     3.915303
      pz      :     1.639419  p :     5.216174
      px      :     1.894718
      py      :     1.682037
      dz2     :     0.003568  d :     0.016258
      dxz     :     0.001890
      dyz     :     0.006841
      dx2y2   :     0.002226
      dxy     :     0.001734
      f0      :     0.000094  f :     0.000720
      f+1     :     0.000030
      f-1     :     0.000248
      f+2     :     0.000176
      f-2     :     0.000099
      f+3     :     0.000036
      f-3     :     0.000037
 12 F s       :     3.915286  s :     3.915286
      pz      :     1.562691  p :     5.216156
      px      :     1.889658
      py      :     1.763808
      dz2     :     0.005199  d :     0.016258
      dxz     :     0.002561
      dyz     :     0.006062
      dx2y2   :     0.001241
      dxy     :     0.001194
      f0      :     0.000146  f :     0.000720
      f+1     :     0.000070
      f-1     :     0.000278
      f+2     :     0.000109
      f-2     :     0.000089
      f+3     :     0.000016
      f-3     :     0.000013
 13 F s       :     3.915479  s :     3.915479
      pz      :     1.891432  p :     5.222552
      px      :     1.564979
      py      :     1.766142
      dz2     :     0.002323  d :     0.015969
      dxz     :     0.002277
      dyz     :     0.001174
      dx2y2   :     0.003919
      dxy     :     0.006274
      f0      :     0.000059  f :     0.000712
      f+1     :     0.000105
      f-1     :     0.000053
      f+2     :     0.000019
      f-2     :     0.000090
      f+3     :     0.000150
      f-3     :     0.000235


                     *******************************
                     * LOEWDIN POPULATION ANALYSIS *
                     *******************************

----------------------
LOEWDIN ATOMIC CHARGES
----------------------
   0 C :   -0.609989
   1 C :   -0.455550
   2 C :   -0.455539
   3 C :   -0.609991
   4 F :    0.211441
   5 F :    0.202034
   6 F :    0.211432
   7 F :    0.220326
   8 F :    0.220305
   9 F :    0.220298
  10 F :    0.220322
  11 F :    0.211428
  12 F :    0.211448
  13 F :    0.202035

-------------------------------
LOEWDIN REDUCED ORBITAL CHARGES
-------------------------------
  0 C s       :     2.759123  s :     2.759123
      pz      :     0.771658  p :     2.500744
      px      :     0.895874
      py      :     0.833211
      dz2     :     0.250885  d :     1.107109
      dxz     :     0.166196
      dyz     :     0.264242
      dx2y2   :     0.179587
      dxy     :     0.246199
      f0      :     0.041083  f :     0.243013
      f+1     :     0.030473
      f-1     :     0.040770
      f+2     :     0.034125
      f-2     :     0.040941
      f+3     :     0.030884
      f-3     :     0.024737
  1 C s       :     2.740204  s :     2.740204
      pz      :     0.730329  p :     2.613542
      px      :     1.026199
      py      :     0.857014
      dz2     :     0.228824  d :     0.926445
      dxz     :     0.132156
      dyz     :     0.239633
      dx2y2   :     0.117192
      dxy     :     0.208640
      f0      :     0.030529  f :     0.175359
      f+1     :     0.022397
      f-1     :     0.037573
      f+2     :     0.030978
      f-2     :     0.028196
      f+3     :     0.013657
      f-3     :     0.012028
  2 C s       :     2.740206  s :     2.740206
      pz      :     0.730327  p :     2.613539
      px      :     1.026198
      py      :     0.857014
      dz2     :     0.228822  d :     0.926437
      dxz     :     0.132155
      dyz     :     0.239633
      dx2y2   :     0.117189
      dxy     :     0.208639
      f0      :     0.030529  f :     0.175356
      f+1     :     0.022396
      f-1     :     0.037572
      f+2     :     0.030979
      f-2     :     0.028197
      f+3     :     0.013656
      f-3     :     0.012027
  3 C s       :     2.759123  s :     2.759123
      pz      :     0.771658  p :     2.500744
      px      :     0.895872
      py      :     0.833213
      dz2     :     0.250882  d :     1.107111
      dxz     :     0.166195
      dyz     :     0.264248
      dx2y2   :     0.179584
      dxy     :     0.246202
      f0      :     0.041084  f :     0.243014
      f+1     :     0.030472
      f-1     :     0.040769
      f+2     :     0.034126
      f-2     :     0.040943
      f+3     :     0.030883
      f-3     :     0.024737
  4 F s       :     3.608215  s :     3.608215
      pz      :     1.603801  p :     5.149294
      px      :     1.813777
      py      :     1.731717
      dz2     :     0.009444  d :     0.029530
      dxz     :     0.004363
      dyz     :     0.011768
      dx2y2   :     0.001930
      dxy     :     0.002025
      f0      :     0.000327  f :     0.001520
      f+1     :     0.000148
      f-1     :     0.000559
      f+2     :     0.000215
      f-2     :     0.000211
      f+3     :     0.000037
      f-3     :     0.000023
  5 F s       :     3.611547  s :     3.611547
      pz      :     1.821056  p :     5.155866
      px      :     1.593741
      py      :     1.741069
      dz2     :     0.004418  d :     0.029047
      dxz     :     0.003288
      dyz     :     0.001982
      dx2y2   :     0.007312
      dxy     :     0.012046
      f0      :     0.000121  f :     0.001506
      f+1     :     0.000218
      f-1     :     0.000105
      f+2     :     0.000027
      f-2     :     0.000197
      f+3     :     0.000364
      f-3     :     0.000475
  6 F s       :     3.608220  s :     3.608220
      pz      :     1.654302  p :     5.149297
      px      :     1.818049
      py      :     1.676946
      dz2     :     0.006070  d :     0.029530
      dxz     :     0.003155
      dyz     :     0.013476
      dx2y2   :     0.003887
      dxy     :     0.002942
      f0      :     0.000216  f :     0.001520
      f+1     :     0.000060
      f-1     :     0.000498
      f+2     :     0.000359
      f-2     :     0.000233
      f+3     :     0.000086
      f-3     :     0.000068
  7 F s       :     3.603928  s :     3.603928
      pz      :     1.603506  p :     5.144646
      px      :     1.828066
      py      :     1.713074
      dz2     :     0.008764  d :     0.029637
      dxz     :     0.005053
      dyz     :     0.011326
      dx2y2   :     0.002131
      dxy     :     0.002363
      f0      :     0.000301  f :     0.001463
      f+1     :     0.000150
      f-1     :     0.000506
      f+2     :     0.000209
      f-2     :     0.000231
      f+3     :     0.000044
      f-3     :     0.000021
  8 F s       :     3.603939  s :     3.603939
      pz      :     1.662871  p :     5.144656
      px      :     1.827852
      py      :     1.653933
      dz2     :     0.005609  d :     0.029637
      dxz     :     0.003760
      dyz     :     0.012561
      dx2y2   :     0.004030
      dxy     :     0.003676
      f0      :     0.000198  f :     0.001463
      f+1     :     0.000061
      f-1     :     0.000442
      f+2     :     0.000330
      f-2     :     0.000262
      f+3     :     0.000103
      f-3     :     0.000066
  9 F s       :     3.603943  s :     3.603943
      pz      :     1.662850  p :     5.144660
      px      :     1.827854
      py      :     1.653955
      dz2     :     0.005610  d :     0.029636
      dxz     :     0.003761
      dyz     :     0.012561
      dx2y2   :     0.004029
      dxy     :     0.003676
      f0      :     0.000198  f :     0.001463
      f+1     :     0.000061
      f-1     :     0.000442
      f+2     :     0.000330
      f-2     :     0.000262
      f+3     :     0.000103
      f-3     :     0.000066
 10 F s       :     3.603931  s :     3.603931
      pz      :     1.603523  p :     5.144648
      px      :     1.828067
      py      :     1.713058
      dz2     :     0.008763  d :     0.029637
      dxz     :     0.005053
      dyz     :     0.011326
      dx2y2   :     0.002132
      dxy     :     0.002363
      f0      :     0.000301  f :     0.001463
      f+1     :     0.000150
      f-1     :     0.000506
      f+2     :     0.000209
      f-2     :     0.000231
      f+3     :     0.000044
      f-3     :     0.000021
 11 F s       :     3.608222  s :     3.608222
      pz      :     1.654266  p :     5.149300
      px      :     1.818052
      py      :     1.676983
      dz2     :     0.006072  d :     0.029530
      dxz     :     0.003155
      dyz     :     0.013476
      dx2y2   :     0.003885
      dxy     :     0.002942
      f0      :     0.000216  f :     0.001520
      f+1     :     0.000060
      f-1     :     0.000498
      f+2     :     0.000359
      f-2     :     0.000233
      f+3     :     0.000086
      f-3     :     0.000068
 12 F s       :     3.608211  s :     3.608211
      pz      :     1.603836  p :     5.149290
      px      :     1.813773
      py      :     1.731681
      dz2     :     0.009442  d :     0.029531
      dxz     :     0.004362
      dyz     :     0.011770
      dx2y2   :     0.001931
      dxy     :     0.002026
      f0      :     0.000327  f :     0.001520
      f+1     :     0.000148
      f-1     :     0.000559
      f+2     :     0.000216
      f-2     :     0.000211
      f+3     :     0.000037
      f-3     :     0.000023
 13 F s       :     3.611546  s :     3.611546
      pz      :     1.821057  p :     5.155866
      px      :     1.593742
      py      :     1.741066
      dz2     :     0.004418  d :     0.029047
      dxz     :     0.003288
      dyz     :     0.001982
      dx2y2   :     0.007312
      dxy     :     0.012047
      f0      :     0.000121  f :     0.001506
      f+1     :     0.000218
      f-1     :     0.000105
      f+2     :     0.000027
      f-2     :     0.000197
      f+3     :     0.000364
      f-3     :     0.000475


                      *****************************
                      * MAYER POPULATION ANALYSIS *
                      *****************************

  NA   - Mulliken gross atomic population
  ZA   - Total nuclear charge
  QA   - Mulliken gross atomic charge
  VA   - Mayer's total valence
  BVA  - Mayer's bonded valence
  FA   - Mayer's free valence

  ATOM       NA         ZA         QA         VA         BVA        FA
  0 C      5.5470     6.0000     0.4530     4.4974     4.4974    -0.0000
  1 C      5.6921     6.0000     0.3079     4.1883     4.1883    -0.0000
  2 C      5.6921     6.0000     0.3079     4.1883     4.1883    -0.0000
  3 C      5.5470     6.0000     0.4530     4.4974     4.4974    -0.0000
  4 F      9.1484     9.0000    -0.1484     1.1705     1.1705     0.0000
  5 F      9.1547     9.0000    -0.1547     1.1663     1.1663    -0.0000
  6 F      9.1485     9.0000    -0.1485     1.1706     1.1706    -0.0000
  7 F      9.1547     9.0000    -0.1547     1.1699     1.1699    -0.0000
  8 F      9.1547     9.0000    -0.1547     1.1698     1.1698    -0.0000
  9 F      9.1547     9.0000    -0.1547     1.1698     1.1698    -0.0000
 10 F      9.1547     9.0000    -0.1547     1.1698     1.1698    -0.0000
 11 F      9.1485     9.0000    -0.1485     1.1706     1.1706    -0.0000
 12 F      9.1484     9.0000    -0.1484     1.1705     1.1705    -0.0000
 13 F      9.1547     9.0000    -0.1547     1.1663     1.1663    -0.0000

  Mayer bond orders larger than 0.100000
B(  0-C ,  1-C ) :   0.9547 B(  0-C ,  4-F ) :   1.1485 B(  0-C ,  5-F ) :   1.1454 
B(  0-C ,  6-F ) :   1.1485 B(  1-C ,  2-C ) :   0.9198 B(  1-C ,  7-F ) :   1.1017 
B(  1-C ,  8-F ) :   1.1016 B(  2-C ,  3-C ) :   0.9547 B(  2-C ,  9-F ) :   1.1016 
B(  2-C , 10-F ) :   1.1017 B(  3-C , 11-F ) :   1.1485 B(  3-C , 12-F ) :   1.1485 
B(  3-C , 13-F ) :   1.1454 

-------
TIMINGS
-------

Total SCF time: 0 days 0 hours 0 min 21 sec 

Total time                  ....      21.889 sec
Sum of individual times     ....      21.508 sec  ( 98.3%)

Fock matrix formation       ....      20.015 sec  ( 91.4%)
  Split-RI-J                ....       1.191 sec  (  6.0% of F)
  Chain of spheres X        ....      16.693 sec  ( 83.4% of F)
  XC integration            ....       1.982 sec  (  9.9% of F)
[...]
      7      -0.007113  -0.314916   0.018681   0.277868  -0.053657  -0.072013
      8       0.106984  -0.023473  -0.191974   0.025338  -0.019455  -0.010756
      9       0.009233   0.125588  -0.007445  -0.149981  -0.241770  -0.255706
     10       0.024525   0.033433  -0.018125   0.029995   0.185494   0.164002
     11      -0.246326   0.006336   0.180829  -0.003295   0.007408   0.004620
     12      -0.036979  -0.131726  -0.000497  -0.105955   0.069160  -0.078412
     13      -0.296213  -0.021837  -0.232696  -0.016768   0.085327  -0.115972
     14      -0.225088   0.016449  -0.189033  -0.035429   0.315300  -0.327980
     15      -0.006742   0.080061  -0.003222   0.150798   0.022893   0.103204
     16      -0.024051   0.182194  -0.015018   0.191072  -0.202331   0.269876
     17       0.304680   0.020225   0.203335   0.021299  -0.017333   0.027075
     18       0.050488  -0.129245   0.010143  -0.107480   0.091678  -0.101155
     19       0.328455  -0.014091   0.261158  -0.024261   0.133560  -0.167748
     20      -0.177933  -0.031173  -0.153333   0.025719  -0.288129   0.295974
     21      -0.056101   0.018809   0.006630  -0.032924   0.088889  -0.028049
     22       0.109535   0.055281   0.226468  -0.078302  -0.039199   0.057536
     23       0.107432  -0.371751   0.228887  -0.384888  -0.108374   0.157607
     24       0.047694  -0.012830  -0.025171  -0.066195   0.079090  -0.014160
     25      -0.128736  -0.023586  -0.266492  -0.154412  -0.060708   0.088115
     26       0.079005   0.377091   0.176025   0.357965   0.106151  -0.145185
     27       0.047693  -0.012833   0.025173   0.066197   0.079089   0.014159
     28      -0.128737  -0.023573   0.266493   0.154404  -0.060707  -0.088113
     29       0.079010   0.377086  -0.176046  -0.357964   0.106154   0.145186
     30      -0.056101   0.018813  -0.006631   0.032923   0.088889   0.028049
     31       0.109538   0.055269  -0.226471   0.078310  -0.039202  -0.057539
     32       0.107430  -0.371757  -0.228866   0.384889  -0.108377  -0.157606
     33       0.050479  -0.129249  -0.010130   0.107479   0.091674   0.101149
     34       0.328446  -0.014112  -0.261149   0.024265   0.133547   0.167735
     35      -0.177956  -0.031162   0.153351  -0.025726  -0.288136  -0.295979
     36      -0.036984  -0.131725   0.000507   0.105957   0.069163   0.078415
     37      -0.296225  -0.021821   0.232704   0.016767   0.085343   0.115986
     38      -0.225068   0.016465   0.189016   0.035425   0.315300   0.327973
     39      -0.006727   0.080062   0.003204  -0.150797   0.022894  -0.103202
     40      -0.024030   0.182198   0.014995  -0.191075  -0.202332  -0.269876
     41       0.304681   0.020200  -0.203336  -0.021287  -0.017326  -0.027062
                 30         31         32         33         34         35    
      0      -0.004347  -0.335252   0.242654  -0.003479  -0.018134  -0.179679
      1      -0.024398   0.205426  -0.029080  -0.011164  -0.018557  -0.457297
      2      -0.002415   0.007525   0.010132   0.180817   0.265042  -0.055355
      3      -0.580312  -0.420811  -0.146286  -0.020814   0.029562  -0.319927
      4       0.043616   0.272774  -0.545289  -0.058488   0.063492  -0.263460
      5      -0.021962   0.010545  -0.069884   0.624312  -0.584185  -0.027908
      6      -0.580309   0.420811  -0.146288   0.020823   0.029564   0.319923
      7       0.043617  -0.272778  -0.545288   0.058501   0.063470   0.263471
      8      -0.021964  -0.010538  -0.069886  -0.624437  -0.584051   0.027913
      9      -0.004346   0.335254   0.242652   0.003470  -0.018133   0.179691
     10      -0.024397  -0.205426  -0.029077   0.011159  -0.018557   0.457253
     11      -0.002414  -0.007528   0.010130  -0.180761   0.265082   0.055360
     12      -0.021191   0.048821  -0.033505   0.024078   0.000148  -0.008251
     13      -0.073977  -0.088528   0.035056  -0.045294  -0.016888   0.076567
     14      -0.128035  -0.112150   0.046397  -0.071238  -0.054833   0.080879
     15       0.255761   0.146036  -0.057868  -0.001643   0.002120   0.157676
     16       0.186342   0.060873  -0.036013  -0.000575   0.001987   0.115846
     17       0.024846   0.010232  -0.005442  -0.009553  -0.017059   0.016164
     18      -0.029158   0.041031  -0.029899  -0.019485   0.005817  -0.002863
     19      -0.096952  -0.105897   0.042647   0.055864   0.022359   0.086106
     20       0.113672   0.097901  -0.042859  -0.063948  -0.047728  -0.062620
     21       0.082669   0.054247   0.023415   0.017397   0.017829   0.019607
     22      -0.013038  -0.062610   0.146752  -0.071873   0.088539   0.064645
     23      -0.005149  -0.070270   0.174868  -0.154967   0.170817   0.071826
     24       0.081555   0.047937   0.036931  -0.005367  -0.033139   0.025364
     25      -0.014525  -0.074976   0.174688   0.099218  -0.124406   0.081044
     26       0.010079   0.060088  -0.135188  -0.136828   0.150565  -0.060940
     27       0.081555  -0.047936   0.036931   0.005359  -0.033142  -0.025365
     28      -0.014523   0.074977   0.174684  -0.099245  -0.124383  -0.081043
     29       0.010078  -0.060091  -0.135187   0.136863   0.150538   0.060940
     30       0.082668  -0.054248   0.023415  -0.017394   0.017831  -0.019607
     31      -0.013040   0.062612   0.146756   0.071892   0.088526  -0.064649
     32      -0.005151   0.070269   0.174868   0.155001   0.170781  -0.071829
     33      -0.029156  -0.041032  -0.029898   0.019488   0.005813   0.002861
     34      -0.096951   0.105893   0.042643  -0.055859   0.022371  -0.086087
     35       0.113679  -0.097904  -0.042859   0.063942  -0.047745   0.062606
     36      -0.021193  -0.048821  -0.033505  -0.024076   0.000152   0.008248
     37      -0.073981   0.088534   0.035058   0.045292  -0.016898  -0.076565
     38      -0.128030   0.112150   0.046396   0.071222  -0.054846  -0.080874
     39       0.255761  -0.146037  -0.057867   0.001642   0.002120  -0.157676
     40       0.186343  -0.060874  -0.036013   0.000575   0.001988  -0.115844
     41       0.024835  -0.010227  -0.005440   0.009550  -0.017061  -0.016159
                 36         37         38         39         40         41    
      0       0.257216  -0.029437  -0.518237   0.048892  -0.448029  -0.216796
      1      -0.564678  -0.064312  -0.297577   0.079091  -0.158135   0.362066
      2      -0.046863   0.615303  -0.081180  -0.592511  -0.036336   0.024758
      3      -0.087359   0.009235   0.160136   0.003259   0.472667   0.067528
      4       0.182504   0.018949  -0.194727   0.030872   0.135979  -0.516985
      5       0.004900  -0.229532  -0.022930  -0.216831   0.035031  -0.047572
      6      -0.087375  -0.009232   0.160090   0.003266  -0.472683  -0.067530
      7       0.182485  -0.018955  -0.194740   0.030882  -0.135959   0.516986
      8       0.004906   0.229534  -0.022927  -0.216827  -0.035030   0.047567
      9       0.257199   0.029427  -0.518196   0.048897   0.448078   0.216799
     10      -0.564708   0.064336  -0.297569   0.079094   0.158154  -0.362068
     11      -0.046895  -0.615292  -0.081179  -0.592520   0.036341  -0.024749
     12      -0.046290   0.018797   0.029752  -0.028611   0.036073   0.025282
     13       0.119964  -0.067818   0.034786   0.076617   0.005862  -0.065847
     14       0.133793  -0.155394   0.031553   0.161300  -0.002812  -0.068553
     15      -0.012712   0.005059   0.191856  -0.013031   0.119732   0.050750
     16       0.041277   0.006044   0.129631  -0.011634   0.086471  -0.011137
     17       0.003707  -0.038059   0.020189   0.034971   0.012089   0.000644
     18      -0.036810  -0.007416   0.033559   0.014723   0.035756   0.020935
     19       0.137785   0.097550   0.026295  -0.111961   0.003425  -0.076660
     20      -0.110332  -0.145704  -0.004592   0.153583   0.009072   0.057786
     21      -0.004401   0.004593  -0.017139  -0.008376  -0.040249  -0.008192
     22      -0.024202   0.002002   0.058146   0.053050  -0.019034   0.078110
     23      -0.025012   0.030971   0.061318   0.084532  -0.024025   0.079723
     24      -0.007172  -0.007293  -0.011621   0.002322  -0.041829  -0.001458
     25      -0.033203  -0.006012   0.062390  -0.075594  -0.023139   0.092788
     26       0.024373   0.028139  -0.042647   0.077300   0.016082  -0.063495
     27      -0.007171   0.007293  -0.011617   0.002321   0.041829   0.001458
     28      -0.033197   0.006014   0.062391  -0.075597   0.023132  -0.092787
     29       0.024368  -0.028141  -0.042650   0.077303  -0.016078   0.063496
     30      -0.004401  -0.004593  -0.017135  -0.008376   0.040251   0.008193
     31      -0.024198  -0.002002   0.058149   0.053048   0.019029  -0.078111
     32      -0.025008  -0.030971   0.061319   0.084527   0.024020  -0.079722
     33      -0.036810   0.007419   0.033556   0.014726  -0.035759  -0.020937
     34       0.137778  -0.097553   0.026292  -0.111961  -0.003424   0.076658
     35      -0.110329   0.145714  -0.004589   0.153593  -0.009075  -0.057789
     36      -0.046290  -0.018793   0.029748  -0.028609  -0.036076  -0.025281
     37       0.119980   0.067814   0.034790   0.076619  -0.005864   0.065850
     38       0.133806   0.155378   0.031557   0.161294   0.002810   0.068551
     39      -0.012698  -0.005063   0.191846  -0.013039  -0.119749  -0.050751
     40       0.041286  -0.006049   0.129625  -0.011639  -0.086483   0.011137
     41       0.003710   0.038058   0.020181   0.034971  -0.012086  -0.000644


-----------
IR SPECTRUM
-----------

 Mode   freq       eps      Int      T**2         TX        TY        TZ
       cm**-1   L/(mol*cm) km/mol    a.u.
----------------------------------------------------------------------------
  6:     13.10   0.000001    0.00  0.000017  ( 0.000667  0.000906 -0.003912)
  7:     53.07   0.000000    0.00  0.000000  ( 0.000000 -0.000000 -0.000000)
  8:     69.01   0.000002    0.01  0.000008  ( 0.000628 -0.000999 -0.002484)
  9:    110.05   0.000096    0.49  0.000273  ( 0.000668 -0.016463 -0.001275)
 10:    165.68   0.000000    0.00  0.000000  ( 0.000000 -0.000000 -0.000001)
 11:    196.38   0.000786    3.97  0.001250  ( 0.001477  0.003468 -0.035147)
 12:    226.51   0.000000    0.00  0.000000  ( 0.000000  0.000000 -0.000000)
 13:    232.23   0.000000    0.00  0.000000  ( 0.000434  0.000251 -0.000006)
 14:    273.80   0.000000    0.00  0.000000  ( 0.000001  0.000000  0.000000)
 15:    284.84   0.000950    4.80  0.001041  (-0.030762 -0.009464 -0.002330)
 16:    314.60   0.000000    0.00  0.000000  ( 0.000000  0.000000  0.000000)
 17:    328.40   0.000000    0.00  0.000000  (-0.000000 -0.000000 -0.000000)
 18:    343.92   0.000001    0.00  0.000001  (-0.000623  0.000394 -0.000031)
 19:    374.93   0.000000    0.00  0.000000  (-0.000000  0.000000 -0.000000)
 20:    413.19   0.000275    1.39  0.000208  ( 0.000692  0.001363 -0.014333)
 21:    505.23   0.000000    0.00  0.000000  (-0.000001  0.000000 -0.000000)
 22:    523.93   0.002152   10.87  0.001282  (-0.027695 -0.022409 -0.003517)
 23:    539.31   0.000000    0.00  0.000000  ( 0.000000  0.000000 -0.000000)
 24:    579.17   0.000294    1.48  0.000158  ( 0.000035  0.001594 -0.012476)
 25:    587.19   0.003772   19.06  0.002004  ( 0.033913 -0.029190 -0.001530)
 26:    609.97   0.000000    0.00  0.000000  (-0.000001  0.000001 -0.000000)
 27:    686.79   0.000000    0.00  0.000000  (-0.000000  0.000000 -0.000000)
 28:    723.31   0.019552   98.81  0.008435  (-0.089908  0.018614 -0.002302)
 29:    756.31   0.000000    0.00  0.000000  ( 0.000000 -0.000000 -0.000000)
 30:    870.55   0.023968  121.12  0.008592  (-0.092595  0.001177 -0.004063)
 31:   1090.71   0.000000    0.00  0.000000  ( 0.000000 -0.000000  0.000000)
 32:   1138.16   0.037402  189.01  0.010255  ( 0.033418 -0.095134 -0.009357)
 33:   1170.73   0.000000    0.00  0.000000  (-0.000000  0.000000 -0.000006)
 34:   1172.61   0.013465   68.05  0.003583  ( 0.001644  0.008650 -0.059211)
 35:   1195.34   0.000000    0.00  0.000000  ( 0.000002 -0.000004  0.000001)
 36:   1204.65   0.055190  278.91  0.014297  ( 0.060521 -0.102634 -0.010018)
 37:   1230.59   0.000000    0.00  0.000000  (-0.000001  0.000002  0.000002)
 38:   1237.22   0.108674  549.20  0.027411  (-0.114870 -0.116292 -0.026303)
 39:   1239.09   0.154456  780.56  0.038900  ( 0.013604  0.026357 -0.194987)
 40:   1244.07   0.000000    0.00  0.000000  ( 0.000005  0.000005  0.000001)
 41:   1312.57   0.000000    0.00  0.000000  ( 0.000000 -0.000000  0.000001)

* The epsilon (eps) is given for a Dirac delta lineshape.
** The dipole moment derivative (T) already includes vibrational overlap.

The first frequency considered to be a vibration is 6
The total number of vibrations considered is 36


--------------------------
THERMOCHEMISTRY AT 298.15K
--------------------------

Temperature         ... 298.15 K
Pressure            ... 1.00 atm
Total Mass          ... 238.02 AMU

Throughout the following assumptions are being made:
  (1) The electronic state is orbitally nondegenerate
  (2) There are no thermally accessible electronically excited states
  (3) Hindered rotations indicated by low frequency modes are not
      treated as such but are treated as vibrations and this may
      cause some error
  (4) All equations used are the standard statistical mechanics
      equations for an ideal gas
  (5) All vibrations are strictly harmonic

freq.      13.10  E(vib)   ...       0.57 
freq.      53.07  E(vib)   ...       0.52 
freq.      69.01  E(vib)   ...       0.50 
freq.     110.05  E(vib)   ...       0.45 
freq.     165.68  E(vib)   ...       0.39 
freq.     196.38  E(vib)   ...       0.36 
freq.     226.51  E(vib)   ...       0.33 
freq.     232.23  E(vib)   ...       0.32 
freq.     273.80  E(vib)   ...       0.28 
freq.     284.84  E(vib)   ...       0.28 
freq.     314.60  E(vib)   ...       0.25 
freq.     328.40  E(vib)   ...       0.24 
freq.     343.92  E(vib)   ...       0.23 
freq.     374.93  E(vib)   ...       0.21 
freq.     413.19  E(vib)   ...       0.19 
freq.     505.23  E(vib)   ...       0.14 
freq.     523.93  E(vib)   ...       0.13 
freq.     539.31  E(vib)   ...       0.12 
freq.     579.17  E(vib)   ...       0.11 
freq.     587.19  E(vib)   ...       0.10 
freq.     609.97  E(vib)   ...       0.10 
freq.     686.79  E(vib)   ...       0.07 
freq.     723.31  E(vib)   ...       0.07 
freq.     756.31  E(vib)   ...       0.06 
freq.     870.55  E(vib)   ...       0.04 
freq.    1090.71  E(vib)   ...       0.02 
freq.    1138.16  E(vib)   ...       0.01 
freq.    1170.73  E(vib)   ...       0.01 
freq.    1172.61  E(vib)   ...       0.01 
freq.    1195.34  E(vib)   ...       0.01 
freq.    1204.65  E(vib)   ...       0.01 
freq.    1230.59  E(vib)   ...       0.01 
freq.    1237.22  E(vib)   ...       0.01 
freq.    1239.09  E(vib)   ...       0.01 
freq.    1244.07  E(vib)   ...       0.01 
freq.    1312.57  E(vib)   ...       0.01 

------------
INNER ENERGY
------------

The inner energy is: U= E(el) + E(ZPE) + E(vib) + E(rot) + E(trans)
    E(el)   - is the total energy from the electronic structure calculation
              = E(kin-el) + E(nuc-el) + E(el-el) + E(nuc-nuc)
    E(ZPE)  - the the zero temperature vibrational energy from the frequency calculation
    E(vib)  - the the finite temperature correction to E(ZPE) due to population
              of excited vibrational states
    E(rot)  - is the rotational thermal energy
    E(trans)- is the translational thermal energy

Summary of contributions to the inner energy U:
Electronic energy                ...  -1150.93261674 Eh
Zero point energy                ...      0.05243711 Eh      32.90 kcal/mol
Thermal vibrational correction   ...      0.00982882 Eh       6.17 kcal/mol
Thermal rotational correction    ...      0.00141627 Eh       0.89 kcal/mol
Thermal translational correction ...      0.00141627 Eh       0.89 kcal/mol
-----------------------------------------------------------------------
Total thermal energy                  -1150.86751826 Eh


Summary of corrections to the electronic energy:
(perhaps to be used in another calculation)
Total thermal correction                  0.01266137 Eh       7.95 kcal/mol
Non-thermal (ZPE) correction              0.05243711 Eh      32.90 kcal/mol
-----------------------------------------------------------------------
Total correction                          0.06509847 Eh      40.85 kcal/mol


--------
ENTHALPY
--------

The enthalpy is H = U + kB*T
                kB is Boltzmann's constant
Total free energy                 ...  -1150.86751826 Eh 
Thermal Enthalpy correction       ...      0.00094421 Eh       0.59 kcal/mol
-----------------------------------------------------------------------
Total Enthalpy                    ...  -1150.86657405 Eh


Note: Rotational entropy computed according to Herzberg 
Infrared and Raman Spectra, Chapter V,1, Van Nostrand Reinhold, 1945 
Point Group:  Ci, Symmetry Number:   1  
Rotational constants in cm-1:     0.042328     0.016147     0.015607 

Vibrational entropy computed according to the QRRHO of S. Grimme
Chem.Eur.J. 2012 18 9955


-------
ENTROPY
-------

The entropy contributions are T*S = T*(S(el)+S(vib)+S(rot)+S(trans))
     S(el)   - electronic entropy
     S(vib)  - vibrational entropy
     S(rot)  - rotational entropy
     S(trans)- translational entropy
The entropies will be listed as multiplied by the temperature to get
units of energy

Electronic entropy                ...      0.00000000 Eh      0.00 kcal/mol
Vibrational entropy               ...      0.01752233 Eh     11.00 kcal/mol
Rotational entropy                ...      0.01491546 Eh      9.36 kcal/mol
Translational entropy             ...      0.02009943 Eh     12.61 kcal/mol
-----------------------------------------------------------------------
Final entropy term                ...      0.05253722 Eh     32.97 kcal/mol

In case the symmetry of your molecule has not been determined correctly
or in case you have a reason to use a different symmetry number we print 
out the resulting rotational entropy values for sn=1,12 :
 --------------------------------------------------------
|  sn= 1 | S(rot)=       0.01491546 Eh      9.36 kcal/mol|
|  sn= 2 | S(rot)=       0.01426100 Eh      8.95 kcal/mol|
|  sn= 3 | S(rot)=       0.01387817 Eh      8.71 kcal/mol|
|  sn= 4 | S(rot)=       0.01360654 Eh      8.54 kcal/mol|
|  sn= 5 | S(rot)=       0.01339586 Eh      8.41 kcal/mol|
|  sn= 6 | S(rot)=       0.01322371 Eh      8.30 kcal/mol|
|  sn= 7 | S(rot)=       0.01307817 Eh      8.21 kcal/mol|
|  sn= 8 | S(rot)=       0.01295209 Eh      8.13 kcal/mol|
|  sn= 9 | S(rot)=       0.01284088 Eh      8.06 kcal/mol|
|  sn=10 | S(rot)=       0.01274140 Eh      8.00 kcal/mol|
|  sn=11 | S(rot)=       0.01265141 Eh      7.94 kcal/mol|
|  sn=12 | S(rot)=       0.01256926 Eh      7.89 kcal/mol|
 --------------------------------------------------------


-------------------
GIBBS FREE ENERGY
-------------------

The Gibbs free energy is G = H - T*S

Total enthalpy                    ...  -1150.86657405 Eh 
Total entropy correction          ...     -0.05253722 Eh    -32.97 kcal/mol
-----------------------------------------------------------------------
Final Gibbs free energy         ...  -1150.91911127 Eh

For completeness - the Gibbs free energy minus the electronic energy
G-E(el)                           ...      0.01350546 Eh      8.47 kcal/mol


Timings for individual modules:

Sum of individual times         ...      422.528 sec (=   7.042 min)
GTO integral calculation        ...        3.682 sec (=   0.061 min)   0.9 %
SCF iterations                  ...      143.095 sec (=   2.385 min)  33.9 %
SCF Gradient evaluation         ...       43.051 sec (=   0.718 min)  10.2 %
Geometry relaxation             ...        0.292 sec (=   0.005 min)   0.1 %
Analytical frequency calculation...      232.410 sec (=   3.873 min)  55.0 %
                             ****ORCA TERMINATED NORMALLY****
TOTAL RUN TIME: 0 days 0 hours 7 minutes 4 seconds 622 msec
