
                                 *****************
                                 * O   R   C   A *
                                 *****************

                                            #,                                       
                                            ###                                      
                                            ####                                     
                                            #####                                    
                                            ######                                   
                                           ########,                                 
                                     ,,################,,,,,                         
                               ,,#################################,,                 
                          ,,##########################################,,             
                       ,#########################################, ''#####,          
                    ,#############################################,,   '####,        
                  ,##################################################,,,,####,       
                ,###########''''           ''''###############################       
              ,#####''   ,,,,##########,,,,          '''####'''          '####       
            ,##' ,,,,###########################,,,                        '##       
           ' ,,###''''                  '''############,,,                           
         ,,##''                                '''############,,,,        ,,,,,,###''
      ,#''                                            '''#######################'''  
     '                                                          ''''####''''         
             ,#######,   #######,   ,#######,      ##                                
            ,#'     '#,  ##    ##  ,#'     '#,    #''#        ######   ,####,        
            ##       ##  ##   ,#'  ##            #'  '#       #        #'  '#        
            ##       ##  #######   ##           ,######,      #####,   #    #        
            '#,     ,#'  ##    ##  '#,     ,#' ,#      #,         ##   #,  ,#        
             '#######'   ##     ##  '#######'  #'      '#     #####' # '####'        



                  #######################################################
                  #                        -***-                        #
                  #          Department of theory and spectroscopy      #
                  #    Directorship and core code : Frank Neese         #
                  #        Max Planck Institute fuer Kohlenforschung    #
                  #                Kaiser Wilhelm Platz 1               #
                  #                 D-45470 Muelheim/Ruhr               #
                  #                      Germany                        #
                  #                                                     #
                  #                  All rights reserved                #
                  #                        -***-                        #
                  #######################################################


                         Program Version 5.0.3 -  RELEASE  -


 With contributions from (in alphabetic order):
   Daniel Aravena         : Magnetic Suceptibility
   Michael Atanasov       : Ab Initio Ligand Field Theory (pilot matlab implementation)
   Alexander A. Auer      : GIAO ZORA, VPT2 properties, NMR spectrum
   Ute Becker             : Parallelization
   Giovanni Bistoni       : ED, misc. LED, open-shell LED, HFLD
   Martin Brehm           : Molecular dynamics
   Dmytro Bykov           : SCF Hessian
   Vijay G. Chilkuri      : MRCI spin determinant printing, contributions to CSF-ICE
   Dipayan Datta          : RHF DLPNO-CCSD density
   Achintya Kumar Dutta   : EOM-CC, STEOM-CC
   Dmitry Ganyushin       : Spin-Orbit,Spin-Spin,Magnetic field MRCI
   Miquel Garcia          : C-PCM and meta-GGA Hessian, CC/C-PCM, Gaussian charge scheme
   Yang Guo               : DLPNO-NEVPT2, F12-NEVPT2, CIM, IAO-localization
   Andreas Hansen         : Spin unrestricted coupled pair/coupled cluster methods
   Benjamin Helmich-Paris : MC-RPA, TRAH-SCF, COSX integrals
   Lee Huntington         : MR-EOM, pCC
   Robert Izsak           : Overlap fitted RIJCOSX, COSX-SCS-MP3, EOM
   Marcus Kettner         : VPT2
   Christian Kollmar      : KDIIS, OOCD, Brueckner-CCSD(T), CCSD density, CASPT2, CASPT2-K
   Simone Kossmann        : Meta GGA functionals, TD-DFT gradient, OOMP2, MP2 Hessian
   Martin Krupicka        : Initial AUTO-CI
   Lucas Lang             : DCDCAS
   Marvin Lechner         : AUTO-CI (C++ implementation), FIC-MRCC
   Dagmar Lenk            : GEPOL surface, SMD
   Dimitrios Liakos       : Extrapolation schemes; Compound Job, initial MDCI parallelization
   Dimitrios Manganas     : Further ROCIS development; embedding schemes
   Dimitrios Pantazis     : SARC Basis sets
   Anastasios Papadopoulos: AUTO-CI, single reference methods and gradients
   Taras Petrenko         : DFT Hessian,TD-DFT gradient, ASA, ECA, R-Raman, ABS, FL, XAS/XES, NRVS
   Peter Pinski           : DLPNO-MP2, DLPNO-MP2 Gradient
   Christoph Reimann      : Effective Core Potentials
   Marius Retegan         : Local ZFS, SOC
   Christoph Riplinger    : Optimizer, TS searches, QM/MM, DLPNO-CCSD(T), (RO)-DLPNO pert. Triples
   Tobias Risthaus        : Range-separated hybrids, TD-DFT gradient, RPA, STAB
   Michael Roemelt        : Original ROCIS implementation
   Masaaki Saitow         : Open-shell DLPNO-CCSD energy and density
   Barbara Sandhoefer     : DKH picture change effects
   Avijit Sen             : IP-ROCIS
   Kantharuban Sivalingam : CASSCF convergence, NEVPT2, FIC-MRCI
   Bernardo de Souza      : ESD, SOC TD-DFT
   Georgi Stoychev        : AutoAux, RI-MP2 NMR, DLPNO-MP2 response
   Willem Van den Heuvel  : Paramagnetic NMR
   Boris Wezisla          : Elementary symmetry handling
   Frank Wennmohs         : Technical directorship


 We gratefully acknowledge several colleagues who have allowed us to
 interface, adapt or use parts of their codes:
   Stefan Grimme, W. Hujo, H. Kruse, P. Pracht,  : VdW corrections, initial TS optimization,
                  C. Bannwarth, S. Ehlert          DFT functionals, gCP, sTDA/sTD-DF
   Ed Valeev, F. Pavosevic, A. Kumar             : LibInt (2-el integral package), F12 methods
   Garnet Chan, S. Sharma, J. Yang, R. Olivares  : DMRG
   Ulf Ekstrom                                   : XCFun DFT Library
   Mihaly Kallay                                 : mrcc  (arbitrary order and MRCC methods)
   Jiri Pittner, Ondrej Demel                    : Mk-CCSD
   Frank Weinhold                                : gennbo (NPA and NBO analysis)
   Christopher J. Cramer and Donald G. Truhlar   : smd solvation model
   Lars Goerigk                                  : TD-DFT with DH, B97 family of functionals
   V. Asgeirsson, H. Jonsson                     : NEB implementation
   FAccTs GmbH                                   : IRC, NEB, NEB-TS, DLPNO-Multilevel, CI-OPT
                                                   MM, QMMM, 2- and 3-layer-ONIOM, Crystal-QMMM,
                                                   LR-CPCM, SF, NACMEs, symmetry and pop. for TD-DFT,
                                                   nearIR, NL-DFT gradient (VV10), updates on ESD,
                                                   ML-optimized integration grids
   S Lehtola, MJT Oliveira, MAL Marques          : LibXC Library
   Liviu Ungur et al                             : ANISO software


 Your calculation uses the libint2 library for the computation of 2-el integrals
 For citations please refer to: http://libint.valeyev.net

 Your ORCA version has been built with support for libXC version: 5.1.0
 For citations please refer to: https://tddft.org/programs/libxc/

 This ORCA versions uses:
   CBLAS   interface :  Fast vector & matrix operations
   LAPACKE interface :  Fast linear algebra routines
   SCALAPACK package :  Parallel linear algebra routines
   Shared memory     :  Shared parallel matrices
   BLAS/LAPACK       :  OpenBLAS 0.3.15  USE64BITINT DYNAMIC_ARCH NO_AFFINITY SkylakeX SINGLE_THREADED
        Core in use  :  SkylakeX
   Copyright (c) 2011-2014, The OpenBLAS Project


Your calculation utilizes the semiempirical GFN2-xTB method
Please cite in your paper:
C. Bannwarth, Ehlert S., S. Grimme,  J. Chem. Theory Comput., 15, (2019), 1652.
   

================================================================================

================================================================================
                                        WARNINGS
                       Please study these warnings very carefully!
================================================================================


WARNING: Geometry Optimization
  ===> : Switching off AutoStart
         For restart on a previous wavefunction, please use MOREAD

WARNING: Found dipole moment calculation with XTB calculation
  ===> : Switching off dipole moment calculation


WARNING: TRAH-SCF for XTB is not implemented!
  ===> : Turning TRAH off!

================================================================================
                                       INPUT FILE
================================================================================
NAME = /home/chenl/Documents/work_cs/SugarPoly3/Mimide2C_1.300.inp
|  1> #Powered by MCPoly
|  2> 
|  3> ! xtb2   OPT 
|  4> %geom
|  5>     MAXITER 200
|  6> end
|  7> %maxcore 10240
|  8> %PAL NPROCS 10 END
|  9> %geom
| 10> POTENTIALS
| 11> {C 4 239 1.300}
| 12> end
| 13> end
| 14> 
| 15> *xyz 0 1
| 16>   H   20.42872810180220      3.85183311132625    -34.90712966353792
| 17>   C   20.53986130865102      2.99989266449136    -34.23983227703710
| 18>   H   21.82616810700785      2.05452809903516    -35.66229816025907
| 19>   H   20.18871335406141      1.38413478570978    -35.58083968137322
| 20>   C   21.02252121644057      1.76042862526221    -34.99246883430719
| 21>   H   20.38606357304192      3.13413487300845    -29.02104214813426
| 22>   N   19.46412332674764      3.09774055419878    -29.43166467148183
| 23>   H   21.37220732564780      0.96557609098974    -34.33439652809719
| 24>   H   18.28452242178610      3.27419580749543    -31.10794809611676
| 25>   C   19.34068780897247      3.38960100963686    -30.85735896436741
| 26>   H   21.22287569398389      2.46094206067329    -31.44909397481608
| 27>   C   20.19977956554986      2.54157754205963    -31.83944186375890
| 28>   H   19.79735453162824      1.52446818698762    -31.95250810005562
| 29>   N   20.22888383748034      3.29456638361750    -33.06103384469312
| 30>   H   19.61786979475254      4.43542926720995    -31.03524242963291
| 31>   H   7.61880705411505     13.69880801002694     -1.74198894314574
| 32>   H   5.92603804600379     11.52144297979730     -6.07156051098562
| 33>   C   8.56544043004319      9.06077759320521     -7.47872704475794
| 34>   H   7.82219645820146      8.35678775776127     -7.10855005664154
| 35>   H   9.22129235940151      8.55674579660885     -8.17880869986279
| 36>   H   19.96864486745881      3.32808544980819    -22.48884781399405
| 37>   O   15.63683012044587      2.65401988217668    -21.32246104166478
| 38>   H   17.70812483972096      2.29305537080812    -22.39324100563373
| 39>   C   16.27689902409966      3.57794480280845    -20.87579550294751
| 40>   O   17.26083035633038      3.34809599992818    -28.92724917194516
| 41>   C   18.41485313309801      3.28406804154946    -28.59021829526294
| 42>   H   16.03662720336728      2.98586157577710    -23.97804292182517
| 43>   C   19.17714512386344      3.68746733615052    -23.15076780235635
| 44>   H   19.27450332935604      4.77535350322402    -23.28587424995554
| 45>   C   17.75903476067835      3.35696130217529    -22.67057792698772
| 46>   O   17.32765486753488      4.12121769516292    -21.54378846588053
| 47>   C   17.02048246229139      3.46089922935689    -24.02456557337913
| 48>   H   17.87965172957394      1.68087640013327    -25.05415868894555
| 49>   C   18.02999597180834      2.76205170992840    -24.95709458017131
| 50>   O   16.88668910483622      4.77858710275522    -24.52486683413643
| 51>   O   19.30544550456011      2.99265248849906    -24.38232902744697
| 52>   H   16.85100301702462      3.10228215057877    -26.72604483597752
| 53>   C   17.78547917717147      3.49129517537857    -26.29572053965349
| 54>   C   17.55354299034091      4.92009129459037    -25.77411452324629
| 55>   H   16.91462921045822      5.51397771309462    -26.43098740144416
| 56>   O   18.81230235383336      3.36094542490452    -27.27554350124698
| 57>   H   18.52236948138559      5.42279807479994    -25.64842420566819
| 58>   H   7.68307960733942      9.44883344237439      5.63271787272853
| 59>   O   6.81606610895674     11.86537017590809     -1.44663691789275
| 60>   H   6.56944246689244     10.83696470850219      5.57212242294350
| 61>   C   7.61407423294363     10.54107417211201      5.71308302796402
| 62>   H   6.10554175611902     12.53948224259758      1.08405574740146
| 63>   C   7.00806502931955     11.95839108199359      0.86989855493070
| 64>   C   6.72760060465563     11.01509317252320     -0.31579896201232
| 65>   H   5.72068727640066     10.59921056409014     -0.30332801297422
| 66>   H   7.46711855957043     10.21220594361568     -0.36913696029485
| 67>   O   7.35878084890462     11.42551633123604      2.12539328749042
| 68>   O   8.70806539611017      9.76637764703055      1.34312750029292
| 69>   C   8.30296851723013     10.47622917699347      2.24298823123257
| 70>   H   8.09806796016644     12.11585377540349      4.28290806233441
| 71>   N   8.74750162219416     10.31888387809867      3.50681399774621
| 72>   H   9.46475509215800      9.59976407255618      3.52019774688553
| 73>   C   8.53405712142436     11.18277664062636      4.64485907053303
| 74>   C   8.07541483265372     12.92871428841743      0.28151909745304
| 75>   H   9.81239939776903     10.76503207900249     -0.27224496357094
| 76>   O   9.19287349926003     11.06572113124971     -2.54121899510745
| 77>   C   7.88013678178212     12.76286585173221     -1.24245886071615
| 78>   H   7.90081472420457     13.94559557478133      0.64207003494703
| 79>   C   9.25218805794217     12.22165557992239     -1.73952429626502
| 80>   C   9.97194276299143     11.83509811677196     -0.43881443774106
| 81>   O   9.40130013241576     12.61060328724481      0.59707234838704
| 82>   N   7.13093586111769     11.08530458911368     -7.66701020766975
| 83>   H   7.49247698227804     12.51703560462118     -3.67615719585991
| 84>   C   6.95752744789240     11.20588226821876     -6.24641011896816
| 85>   H   7.13978803755383     10.27378481321785     -5.70015328786441
| 86>   N   8.19864404957509     12.17007594243421     -4.30947834771694
| 87>   C   7.93638131867527     12.27343163517273     -5.73008407002340
| 88>   H   8.89326037391158     12.13321773986089     -6.23923128282287
| 89>   C   8.99927125563726     11.15488597833031     -3.87830116660467
| 90>   H   9.14626802920894      9.39329078919389     -6.62204106243181
| 91>   C   7.83826008574562     10.17817184565342     -8.16305793416075
| 92>   H   7.90508677893547     10.20816067788920     -9.24585412963843
| 93>   H   9.78043674981904     13.01825241546376     -2.27432210327476
| 94>   H   11.03919544827471     12.04960738060959     -0.45490149870085
| 95>   H   7.56525115222139     13.27300934806878     -5.95291963262633
| 96>   O   9.54753571398212     10.37820868681015     -4.62226564337186
| 97>   H   15.18404734588918      3.58582033435426    -19.24655694695680
| 98>   H   15.90381524545308      6.83100931154802    -17.87080601776247
| 99>   N   15.94911978824446      4.10682714721201    -19.66356941840721
|100>   H   17.27205951645062      5.65639412833236    -19.32404321602811
|101>   H   14.64970398046410      5.61589419693796    -18.11757913271455
|102>   H   17.31278502747243      4.37755932011564    -18.09538220501148
|103>   C   16.65541754248138      4.97331584456152    -18.73769885111932
|104>   C   15.69244955378321      5.75964057398961    -17.81465307167846
|105>   O   15.82647101579467      5.35728381030460    -16.43363982061030
|106>   C   15.24306765716999      5.52763747922539    -14.10578861220414
|107>   C   15.06533286688283      6.03453773323758    -15.53693180738804
|108>   H   16.31439264400826      5.42867158125534    -13.91155394360604
|109>   H   13.53666959279469      6.60493659411880    -13.34419169935245
|110>   C   14.56723071411567      6.42212636596457    -13.04854705272658
|111>   O   14.31329502048740      6.91473633025321    -15.86758412690344
|112>   H   15.07327395926356      7.38307701389401    -13.01842387850193
|113>   H   14.80988165342209      4.52341418451106    -14.06455770019951
|114>   N   4.06197991499798     12.36416753835909     21.22081477107772
|115>   C   4.33523760489427     12.14103009237278     20.01265580186757
|116>   C   5.42274555277817     12.55968890603867     19.04823739013285
|117>   H   6.21202596902067     11.80532400320154     19.10676624248864
|118>   H   5.85831980578536     13.51616048605176     19.33465670149544
|119>   H   4.36352659685721     13.50910289657682     17.41650344649091
|120>   C   4.92589096004171     12.58892536503130     17.58764181569235
|121>   H   4.23717558698516     11.75265930170875     17.44424279058304
|122>   H   3.63100897921316     11.44457602394663     19.55225715298401
|123>   C   6.03709325860631     12.47363116950445     16.52621329088628
|124>   C   5.48075214218433     12.46402905222924     15.09034505881218
|125>   H   7.55650753440008     12.37306764122215     14.31600942849063
|126>   C   6.50892165324781     12.23181873621308     14.01452755386663
|127>   H   8.11979786505346     12.14704614254011     12.00970209135762
|128>   C   7.17700627440383     11.59811229765247     11.84183568645444
|129>   O   5.91321920689499     11.32011594048352      7.68292433213483
|130>   N   6.18161323487091     11.88797072882355     12.84730711398780
|131>   H   7.38953939878373     10.52559822954947     11.93089070309977
|132>   C   7.06824530827352     11.20965420968778      7.95714969002218
|133>   H   8.02201664048049     10.34354639999153      9.61842137892399
|134>   O   8.01455134685744     10.89647078786528      7.04665658180264
|135>   H   9.51000744589208     11.38938367437189      5.08732761733029
|136>   H   4.70679715877063     11.69879942052413     14.99355232283876
|137>   C   7.66751858805798     11.34309746681724      9.34852919818236
|138>   H   6.49255574303862     12.91303464071176     10.26545134860852
|139>   C   6.67309908015273     11.84782910353285     10.40918932930508
|140>   H   12.69468441115532      5.92610223044553     -7.07134637417915
|141>   H   5.72005842454907     11.33306842389382     10.28202073320547
|142>   H   13.82044575013800      8.31584326681701     -8.61100402933567
|143>   H   8.55011011892933     11.98307260657629      9.28056561452908
|144>   H   13.14098015204840      5.43510254884909     -9.44737011502862
|145>   H   15.62671496608931      5.52457911371845    -11.40750910347425
|146>   C   14.59163351094541      5.81566064258324    -11.62830337449987
|147>   H   13.96841591794235      4.90632396426810    -11.58771937373768
|148>   N   14.22460845518659      6.77165577884764    -10.60935366783052
|149>   C   13.54402853018110      6.45182032216345     -9.59814734925264
|150>   H   11.41102237068857      7.87455938224198     -6.34328076026822
|151>   H   12.85946575138539      8.85050664455636     -6.19195959758882
|152>   C   12.47073670654944      7.83841058431534     -6.07777393781656
|153>   C   13.18635557250749      6.89900003057481     -7.07820461214124
|154>   C   13.16995305613211      7.44344958225703     -8.52655239976981
|155>   H   14.21752913348329      6.74727466882542     -6.76072171801198
|156>   H   12.14410939902307      7.76483366398882     -8.74904936127661
|157>   H   1.11044842186166     14.61734812618889     28.26705006554879
|158>   C   2.07062673596690     14.54909749936821     28.77989665925375
|159>   C   2.25543748665363     15.57562183038810     29.90910341038595
|160>   H   1.70742223954294     16.50667509336512     29.76036873121059
|161>   O   2.16738064253014     13.28109633124244     29.39606633048486
|162>   O   3.63703782222934     15.86335159271951     29.94268224063910
|163>   H   2.95267480448546     15.83797429934243     27.31948471528724
|164>   C   3.23635197303053     14.91491947509631     27.83292295299567
|165>   O   3.16840395346530     15.53891458431631     25.26550913914143
|166>   H   3.42217142569005     14.69972339559868     23.07247974878480
|167>   H   2.75547478563704     13.07033544611473     23.00108083915012
|168>   C   3.53933886459226     14.43505052734819     25.53908314231439
|169>   C   4.31368300257358     15.21283059436291     28.87777721362056
|170>   H   5.08876791248748     15.88272511581286     28.51756003241990
|171>   H   4.76449477085499     14.27467502839145     29.21024117052197
|172>   O   3.60583913204253     13.98132318987955     26.83267125376819
|173>   H   6.73297685304586     13.30879213169107     16.63537533660045
|174>   C   3.64766341058595     13.65131099444163     23.22199451225276
|175>   H   6.59566747516094     11.54961980972933     16.69635105496662
|176>   H   5.25986680350964     14.04004143098911     21.78593353732914
|177>   C   4.72071053885248     13.18301164032042     22.20698070470354
|178>   N   3.97203819261454     13.51993092824556     24.63774280404349
|179>   H   5.45333432772976     12.55326402020692     22.71915162757926
|180>   H   4.14856674633755     12.59348484777745     24.97933854580478
|181>   H   4.99786775907408     13.42564784808788     14.88514012053605
|182>   N   11.48374306803288      8.27256669122299     -2.45098467508438
|183>   C   12.34131333905769      7.82557277267967     -1.38984615234150
|184>   C   11.48115624615608      7.24674805785070     -0.23063067006592
|185>   H   10.48704400038216      7.04371193435483     -0.63103302952933
|186>   H   12.88347537594147      8.69966731431867     -1.02360457312117
|187>   N   11.32230650247090      8.06016051902790      0.97192445590474
|188>   C   11.84118295923617      7.65695399811120      2.14035603790040
|189>   H   10.56898318617827      8.73847552035756      1.01269289713242
|190>   H   11.93392052113290      6.31200275398225      0.10040950431497
|191>   O   12.67405106667912      6.79712259144257      2.27844164226088
|192>   C   11.59611670116650      8.13189608220044     -3.69527579109788
|193>   H   10.78109943392865      8.59650224397103     -4.24089737794383
|194>   H   13.07541558380960      7.07119039105982     -1.69841272120684
|195>   C   12.60369684718341      7.42630513568971     -4.59264175647924
|196>   H   13.61999846491783      7.60577088449990     -4.23774260371604
|197>   H   12.41306803044215      6.35149687009611     -4.49931163133280
|198>   O   11.30250465787366      8.34632684764554      3.21947429381469
|199>   C   2.29767756875327     13.41421418832114     30.80498016601563
|200>   O   2.07856785573663     15.35053466710152     32.40420834753257
|201>   C   1.35925231685494     14.87186044275896     33.45665227962925
|202>   C   1.73302050337422     14.79989745699617     31.13397584496101
|203>   H   0.64353956710111     14.76073764109853     31.06459159256760
|204>   O   0.58003041976656     13.95747706030268     33.35731185857307
|205>   H   3.34606242519456     13.36557097524194     31.11262334652156
|206>   H   -0.00382132428093     16.74778531991373     36.34121842380701
|207>   H   1.74160419584334     12.60698220042572     31.27278923909906
|208>   H   -2.06561618479471     17.43002672631219     41.58442288421726
|209>   C   -1.22580828573203     16.98724293320331     42.12902295498604
|210>   C   0.04618982593563     17.16910819008902     41.28511792135578
|211>   H   -1.43842507176917     15.91526467684689     42.26836247571263
|212>   H   -0.35061679144837     15.58206706071864     39.84058679615420
|213>   H   -0.81008699266601     17.19351043219381     39.28137533986642
|214>   C   -0.05714439806346     16.63383363415165     39.83923525206304
|215>   N   1.60722167382200     15.54937883441208     34.61473503787769
|216>   H   2.34083895482810     16.24079033539102     34.61073372045291
|217>   H   -0.26889463594232     15.36532182246903     37.42644547861188
|218>   H   2.08576999057782     14.59126687460898     36.41990455029102
|219>   C   0.48326673700829     15.93802093856940     36.88563210375526
|220>   C   1.20434315949708     14.98512042550222     35.89519195207787
|221>   H   0.54201191997467     14.15241777596932     35.64839711227718
|222>   C   1.28959425284818     16.75283954323943     39.12797616869567
|223>   O   1.42157935230061     16.49274524660550     37.80481175111337
|224>   O   2.29015415141808     17.08914961442860     39.70078043622009
|225>   H   10.90266723671741     10.92660837286399     11.54443945378958
|226>   H   9.23475769146158      9.65487694325547     12.52328277662245
|227>   H   10.99659336590294      8.08245492353806     10.77472650775872
|228>   H   9.88926303492488      8.18504360872330      5.51328160832900
|229>   C   11.00464930877457      8.83161380491211     11.56227361972219
|230>   H   10.38714237662013      6.48595498056402      5.32079303124888
|231>   C   9.77670364463910      8.70249439982131     12.48138313533775
|232>   H   11.90059348546438      8.68467181464802     12.17144753442046
|233>   H   9.09816522242080      7.91898592666774     12.13329105610316
|234>   N   11.03500954782307     10.12809627565873     10.93791397620555
|235>   O   11.46721781550569     11.60601909481172      9.30680794766565
|236>   O   11.67916265302285     10.26786721646870      5.38239405792632
|237>   C   10.73549820885072      7.49642040735636      5.49720556409215
|238>   H   13.45322382817698      9.33230629168432      4.94099476163563
|239>   C   11.79187207327432      7.96530764616448      4.48806593375185
|240>   H   10.22306589808166     10.21210148715832      6.89240315717190
|241>   O   11.40072389961303      7.51517349716488      6.74560752262911
|242>   O   11.64958598565235      9.38337815827037      8.88353512167406
|243>   C   11.39424882544686     10.45560820343982      9.67554866640741
|244>   C   12.44397081196795      8.47413271822640      6.72475265513511
|245>   C   12.45497505412924      9.08413048056795      5.31485545544891
|246>   C   12.18337837981370      9.71020014055974      7.60945950354058
|247>   H   13.13465787221837     10.24590027439467      7.74999145080623
|248>   C   11.25565181674739     10.53297332018227      6.71069229821010
|249>   H   11.33355929307359     11.60878157709825      6.89198189755709
|250>   H   13.37532648324431      7.97173748889942      6.99884743862158
|251>   H   12.53168145851047      7.16675115457846      4.34081845285539
|252>   H   0.87869680880670     16.67063197847667     41.77768770009512
|253>   H   -1.30537081261284     18.93239291348561     45.67120537439480
|254>   H   -1.15166757211532     17.36451582815018     46.50079058598624
|255>   C   -1.71587638347425     17.93299165472579     45.76042108088178
|256>   H   -2.08828129379990     16.20080917766825     44.46439575754180
|257>   H   0.28035988439278     18.23300496537423     41.25789886364323
|258>   H   -2.75406990482285     17.98168607911095     46.08468642063642
|259>   N   -1.16645375895142     17.70449457347792     43.38650613717005
|260>   C   -1.64875320859396     17.21379291077024     44.43977489487941
|261>   O   9.05150176365711     10.12241982011721     14.66860256836036
|262>   C   7.94060260087641     10.88080365557596     21.26301878289402
|263>   N   8.32221352877013     10.39030482371767     18.93796260794594
|264>   C   8.78229598286707     10.77565726536280     20.04093608130087
|265>   H   9.83776863742325     11.05945199561626     20.17250619100646
|266>   H   8.79618870076667     10.92817093591514     17.01194153093065
|267>   C   9.18122476653440     10.26857281349670     17.79486646370383
|268>   H   10.21987080418665     10.56075741462765     18.02875236736050
|269>   C   9.14772561005918      8.82326197015169     17.28906081052851
|270>   H   9.39004215105191      8.16125267177794     18.12481732406334
|271>   C   10.13658632287892      8.54942795108476     16.15366107266155
|272>   H   8.40332154528510     10.31573819780204     22.07101896342457
|273>   H   7.87481345031863     11.92095874990873     21.58470054173082
|274>   H   8.13236213391833      8.59169450248478     16.96209088064793
|275>   C   9.70294565391648      9.12472816321080     14.82356180236817
|276>   H   11.11188117542572      8.97916112103443     16.39854344714054
|277>   O   10.15483870540223      8.35918233945366     13.81540712764902
|278>   H   10.27275874611970      7.47538144498173     16.02214659978431
|279>   H   6.94096361789500     10.49677723646495     21.07850724000947
|280> *
|281> 
|282>                          ****END OF INPUT****
================================================================================

                       *****************************
                       * Geometry Optimization Run *
                       *****************************

Geometry optimization settings:
Update method            Update   .... BFGS
Choice of coordinates    CoordSys .... Z-matrix Internals
Initial Hessian          InHess   .... Almoef's Model

Convergence Tolerances:
Energy Change            TolE     ....  5.0000e-06 Eh
Max. Gradient            TolMAXG  ....  3.0000e-04 Eh/bohr
RMS Gradient             TolRMSG  ....  1.0000e-04 Eh/bohr
Max. Displacement        TolMAXD  ....  4.0000e-03 bohr
RMS Displacement         TolRMSD  ....  2.0000e-03 bohr
Strict Convergence                ....  False
------------------------------------------------------------------------------
                        ORCA OPTIMIZATION COORDINATE SETUP
------------------------------------------------------------------------------

The optimization will be done in new redundant internal coordinates
Making redundant internal coordinates   ...  (new redundants) done
Evaluating the initial hessian          ...  (Almloef) done
Evaluating the coordinates              ...  done
Calculating the B-matrix                .... done
Calculating the G-matrix                .... done
Diagonalizing the G-matrix              .... done
Small eigenvalue found = 3.524e-06
Small eigenvalue found = 5.359e-06
Small eigenvalue found = 1.877e-05
Small eigenvalue found = 2.482e-05
Small eigenvalue found = 7.971e-05
Small eigenvalue found = 1.267e-04
Small eigenvalue found = 1.936e-04
Small eigenvalue found = 3.060e-04
Small eigenvalue found = 4.095e-04
Small eigenvalue found = 4.399e-04
Small eigenvalue found = 5.829e-04
Small eigenvalue found = 6.169e-04
Small eigenvalue found = 7.103e-04
Small eigenvalue found = 9.398e-04
Small eigenvalue found = 9.974e-04
Small eigenvalue found = 1.325e-03
Small eigenvalue found = 1.678e-03
Small eigenvalue found = 1.769e-03
Small eigenvalue found = 2.140e-03
Small eigenvalue found = 2.285e-03
Small eigenvalue found = 2.842e-03
Small eigenvalue found = 3.082e-03
Small eigenvalue found = 3.798e-03
Small eigenvalue found = 4.243e-03
Small eigenvalue found = 5.428e-03
Small eigenvalue found = 5.512e-03
Small eigenvalue found = 5.775e-03
Small eigenvalue found = 6.470e-03
Small eigenvalue found = 6.686e-03
Small eigenvalue found = 7.135e-03
Small eigenvalue found = 7.956e-03
Small eigenvalue found = 8.854e-03
Small eigenvalue found = 9.536e-03
Small eigenvalue found = 1.016e-02
Small eigenvalue found = 1.041e-02
Small eigenvalue found = 1.109e-02
Small eigenvalue found = 1.252e-02
Small eigenvalue found = 1.319e-02
Small eigenvalue found = 1.419e-02
Small eigenvalue found = 1.526e-02
Small eigenvalue found = 1.580e-02
Small eigenvalue found = 1.717e-02
Small eigenvalue found = 1.788e-02
Small eigenvalue found = 1.826e-02
Small eigenvalue found = 1.938e-02
Small eigenvalue found = 2.084e-02
Small eigenvalue found = 2.242e-02
Small eigenvalue found = 2.367e-02
Small eigenvalue found = 2.487e-02
Small eigenvalue found = 2.658e-02
Small eigenvalue found = 2.720e-02
Small eigenvalue found = 2.849e-02
The first mode is                       ....  473
The number of degrees of freedom        ....  784

    -----------------------------------------------------------------
                    Redundant Internal Coordinates


    -----------------------------------------------------------------
         Definition                    Initial Value    Approx d2E/dq
    -----------------------------------------------------------------
      1. B(C   1,H   0)                  1.0879         0.362942   
      2. B(C   4,H   2)                  1.0867         0.364432   
      3. B(C   4,H   3)                  1.0877         0.363204   
      4. B(C   4,C   1)                  1.5283         0.375918   
      5. B(N   6,H   5)                  1.0099         0.432858   
      6. B(H   7,C   4)                  1.0896         0.360689   
      7. B(C   9,N   6)                  1.4605         0.431934   
      8. B(C   9,H   8)                  1.0916         0.357985   
      9. B(C  11,C   9)                  1.5562         0.339330   
     10. B(C  11,H  10)                  1.0980         0.349674   
     11. B(H  12,C  11)                  1.0997         0.347551   
     12. B(N  13,C   1)                  1.2542         0.921467   
     13. B(N  13,C  11)                  1.4353         0.473783   
     14. B(H  14,C   9)                  1.0965         0.351652   
     15. B(H  18,C  17)                  1.0886         0.361960   
     16. B(H  19,C  17)                  1.0837         0.368595   
     17. B(C  23,O  21)                  1.2095         1.086145   
     18. B(C  25,O  24)                  1.2039         1.108489   
     19. B(C  25,N   6)                  1.3578         0.629784   
     20. B(C  27,H  20)                  1.0926         0.356683   
     21. B(H  28,C  27)                  1.1006         0.346400   
     22. B(C  29,H  22)                  1.1006         0.346299   
     23. B(C  29,C  27)                  1.5332         0.369142   
     24. B(O  30,C  29)                  1.4282         0.486281   
     25. B(O  30,C  23)                  1.3585         0.628312   
     26. B(C  31,C  29)                  1.5458         0.352489   
     27. B(C  31,H  26)                  1.0935         0.355467   
     28. B(C  33,H  32)                  1.0959         0.352398   
     29. B(C  33,C  31)                  1.5418         0.357740   
     30. B(O  34,C  31)                  1.4158         0.508986   
     31. B(O  35,C  33)                  1.4179         0.505173   
     32. B(O  35,C  27)                  1.4198         0.501479   
     33. B(C  37,H  36)                  1.0999         0.347253   
     34. B(C  37,C  33)                  1.5439         0.355030   
     35. B(C  38,O  34)                  1.4231         0.495447   
     36. B(C  38,C  37)                  1.5386         0.361941   
     37. B(H  39,C  38)                  1.0920         0.357506   
     38. B(O  40,C  37)                  1.4253         0.491582   
     39. B(O  40,C  25)                  1.3756         0.590020   
     40. B(H  41,C  38)                  1.0987         0.348776   
     41. B(C  45,H  42)                  1.0974         0.350488   
     42. B(C  45,H  44)                  1.0948         0.353753   
     43. B(C  47,H  46)                  1.0946         0.354108   
     44. B(C  48,O  43)                  1.4176         0.505639   
     45. B(C  48,C  47)                  1.5409         0.358921   
     46. B(H  49,C  48)                  1.0895         0.360775   
     47. B(H  50,C  48)                  1.0929         0.356326   
     48. B(O  51,C  47)                  1.4083         0.523271   
     49. B(C  53,O  52)                  1.2156         1.061894   
     50. B(C  53,O  51)                  1.3440         0.662505   
     51. B(N  55,C  53)                  1.3489         0.650719   
     52. B(H  56,N  55)                  1.0158         0.423651   
     53. B(C  57,N  55)                  1.4447         0.457808   
     54. B(C  57,H  54)                  1.0917         0.357907   
     55. B(C  57,C  45)                  1.5490         0.348450   
     56. B(C  58,C  47)                  1.5579         0.337222   
     57. B(C  61,H  15)                  1.0926         0.356655   
     58. B(C  61,C  58)                  1.5454         0.353074   
     59. B(C  61,O  43)                  1.4069         0.525866   
     60. B(H  62,C  58)                  1.0929         0.356225   
     61. B(C  63,C  61)                  1.5564         0.338995   
     62. B(C  63,O  60)                  1.4080         0.523823   
     63. B(C  64,H  59)                  1.0946         0.354011   
     64. B(C  64,C  63)                  1.5360         0.365420   
     65. B(O  65,C  58)                  1.3996         0.540305   
     66. B(O  65,C  64)                  1.4142         0.511901   
     67. B(C  68,H  16)                  1.0928         0.356469   
     68. B(C  68,N  66)                  1.4362         0.472218   
     69. B(H  69,C  68)                  1.0956         0.352719   
     70. B(N  70,H  67)                  1.0100         0.432670   
     71. B(C  71,N  70)                  1.4483         0.451705   
     72. B(C  71,C  68)                  1.5377         0.363204   
     73. B(H  72,C  71)                  1.0929         0.356237   
     74. B(C  73,N  70)                  1.3629         0.618149   
     75. B(C  73,O  60)                  1.3540         0.638803   
     76. B(H  74,C  17)                  1.0871         0.363926   
     77. B(C  75,N  66)                  1.2527         0.926673   
     78. B(C  75,C  17)                  1.4986         0.419319   
     79. B(H  76,C  75)                  1.0853         0.366411   
     80. B(H  77,C  63)                  1.0953         0.353192   
     81. B(H  78,C  64)                  1.0887         0.361803   
     82. B(H  79,C  71)                  1.0893         0.361043   
     83. B(O  80,C  73)                  1.2072         1.095315   
     84. B(N  83,H  81)                  1.0152         0.424480   
     85. B(N  83,C  23)                  1.3626         0.618883   
     86. B(C  87,H  86)                  1.0953         0.353188   
     87. B(C  87,H  84)                  1.0912         0.358561   
     88. B(C  87,N  83)                  1.4515         0.446408   
     89. B(C  88,C  87)                  1.5484         0.349122   
     90. B(C  88,H  85)                  1.0953         0.353119   
     91. B(C  88,H  82)                  1.0935         0.355549   
     92. B(O  89,C  88)                  1.4447         0.457788   
     93. B(C  91,C  90)                  1.5286         0.375460   
     94. B(C  91,O  89)                  1.3572         0.631173   
     95. B(H  92,C  90)                  1.0933         0.355789   
     96. B(C  94,H  93)                  1.0876         0.363284   
     97. B(C  94,C  90)                  1.5410         0.358803   
     98. B(O  95,C  91)                  1.2040         1.108179   
     99. B(H  96,C  94)                  1.0865         0.364802   
    100. B(H  97,C  90)                  1.0944         0.354265   
    101. B(C  99,N  98)                  1.2586         0.906764   
    102. B(C 100,C  99)                  1.5126         0.398189   
    103. B(H 101,C 100)                  1.0934         0.355671   
    104. B(H 102,C 100)                  1.0893         0.361012   
    105. B(C 104,H 103)                  1.0919         0.357581   
    106. B(C 104,C 100)                  1.5431         0.356064   
    107. B(H 105,C 104)                  1.0928         0.356402   
    108. B(H 106,C  99)                  1.0922         0.357170   
    109. B(C 107,C 104)                  1.5410         0.358774   
    110. B(C 108,C 107)                  1.5399         0.360218   
    111. B(C 110,H 109)                  1.0992         0.348111   
    112. B(C 110,C 108)                  1.5061         0.407808   
    113. B(C 112,H 111)                  1.1038         0.342306   
    114. B(N 114,C 112)                  1.4442         0.458518   
    115. B(N 114,C 110)                  1.2601         0.901939   
    116. B(H 115,C 112)                  1.0970         0.350971   
    117. B(C 116,O 113)                  1.1923         1.157058   
    118. B(O 118,C 116)                  1.3500         0.648108   
    119. B(O 118,C  45)                  1.4370         0.470775   
    120. B(H 119,C  57)                  1.0913         0.358379   
    121. B(H 120,C 108)                  1.0927         0.356571   
    122. B(C 121,H 117)                  1.0944         0.354385   
    123. B(C 121,C 116)                  1.5208         0.386398   
    124. B(C 123,H 122)                  1.0899         0.360210   
    125. B(C 123,C 121)                  1.5390         0.361381   
    126. B(C 123,C 112)                  1.5391         0.361324   
    127. B(H 125,C 123)                  1.0906         0.359290   
    128. B(H 127,C 121)                  1.0923         0.357049   
    129. B(C 130,H 129)                  1.0977         0.350099   
    130. B(C 130,C  94)                  1.5445         0.354193   
    131. B(H 131,C 130)                  1.1032         0.343117   
    132. B(N 132,C 130)                  1.4446         0.457880   
    133. B(C 133,N 132)                  1.2602         0.901602   
    134. B(C 133,H 128)                  1.1040         0.342002   
    135. B(H 134,H  74)                  2.7411         0.000160   
    136. B(C 136,H 135)                  1.0902         0.359865   
    137. B(C 136,H 134)                  1.0931         0.356066   
    138. B(C 137,H 124)                  1.0901         0.359968   
    139. B(C 137,C 136)                  1.5477         0.350020   
    140. B(C 138,C 137)                  1.5474         0.350460   
    141. B(C 138,C 133)                  1.5072         0.406250   
    142. B(C 138,H 126)                  1.0915         0.358138   
    143. B(H 139,C 137)                  1.0896         0.360686   
    144. B(H 140,C 138)                  1.0978         0.349938   
    145. B(C 142,H 141)                  1.0907         0.359184   
    146. B(C 143,C 142)                  1.5372         0.363810   
    147. B(H 144,C 143)                  1.0906         0.359371   
    148. B(O 145,C 142)                  1.4131         0.514067   
    149. B(O 146,C 143)                  1.4116         0.516828   
    150. B(C 148,H 147)                  1.0937         0.355273   
    151. B(C 148,C 142)                  1.5458         0.352507   
    152. B(C 152,O 149)                  1.1962         1.140337   
    153. B(C 153,C 148)                  1.5301         0.373479   
    154. B(C 153,O 146)                  1.4195         0.502078   
    155. B(H 154,C 153)                  1.0859         0.365507   
    156. B(H 155,C 153)                  1.0927         0.356602   
    157. B(O 156,C 152)                  1.3725         0.596830   
    158. B(O 156,C 148)                  1.4173         0.506272   
    159. B(H 157,C 107)                  1.0925         0.356743   
    160. B(C 158,H 151)                  1.0874         0.363619   
    161. B(C 158,H 150)                  1.0828         0.369806   
    162. B(H 159,C 107)                  1.0930         0.356093   
    163. B(C 161,H 160)                  1.0966         0.351510   
    164. B(C 161,C 158)                  1.5495         0.347734   
    165. B(C 161,N  98)                  1.4412         0.463709   
    166. B(N 162,C 158)                  1.4584         0.435318   
    167. B(N 162,C 152)                  1.3554         0.635463   
    168. B(H 163,C 161)                  1.0935         0.355561   
    169. B(H 164,N 162)                  1.0031         0.443863   
    170. B(H 165,C 108)                  1.0954         0.352970   
    171. B(C 167,N 166)                  1.4357         0.473106   
    172. B(C 168,C 167)                  1.5552         0.340527   
    173. B(H 169,C 168)                  1.0908         0.359067   
    174. B(H 170,C 167)                  1.0918         0.357675   
    175. B(N 171,C 168)                  1.4605         0.431940   
    176. B(C 172,N 171)                  1.3405         0.671104   
    177. B(H 173,N 171)                  1.0145         0.425568   
    178. B(H 173,H  59)                  2.5160         0.000366   
    179. B(H 173,O  52)                  2.1515         0.006532   
    180. B(H 174,C 168)                  1.0901         0.359959   
    181. B(O 175,C 172)                  1.2050         1.104121   
    182. B(C 176,N 166)                  1.2572         0.911319   
    183. B(H 177,C 176)                  1.0853         0.366409   
    184. B(H 177,O  80)                  2.2004         0.005458   
    185. B(H 178,C 167)                  1.0969         0.351074   
    186. B(C 179,C 176)                  1.5226         0.383855   
    187. B(C 179,C 136)                  1.5470         0.350992   
    188. B(H 180,C 179)                  1.0913         0.358327   
    189. B(H 181,C 179)                  1.0956         0.352813   
    190. B(O 182,C 172)                  1.3892         0.561223   
    191. B(O 182,H  56)                  2.2447         0.004637   
    192. B(C 183,O 145)                  1.4212         0.499044   
    193. B(C 185,O 184)                  1.3617         0.620944   
    194. B(C 186,O 184)                  1.4269         0.488624   
    195. B(C 186,C 183)                  1.5321         0.370765   
    196. B(C 186,C 143)                  1.5411         0.358652   
    197. B(H 187,C 186)                  1.0924         0.356952   
    198. B(O 188,C 185)                  1.2055         1.102263   
    199. B(H 189,C 183)                  1.0937         0.355273   
    200. B(H 191,C 183)                  1.0861         0.365251   
    201. B(C 193,H 192)                  1.0945         0.354200   
    202. B(C 194,C 193)                  1.5373         0.363716   
    203. B(H 195,C 193)                  1.1017         0.344941   
    204. B(C 198,H 197)                  1.0915         0.358123   
    205. B(C 198,H 196)                  1.0919         0.357538   
    206. B(C 198,C 194)                  1.5452         0.353232   
    207. B(N 199,C 185)                  1.3644         0.614705   
    208. B(H 200,N 199)                  1.0081         0.435743   
    209. B(C 203,H 201)                  1.0891         0.361249   
    210. B(C 203,H 190)                  1.0906         0.359337   
    211. B(C 204,C 203)                  1.5521         0.344473   
    212. B(C 204,H 202)                  1.0988         0.348647   
    213. B(C 204,N 199)                  1.4561         0.438929   
    214. B(H 205,C 204)                  1.0922         0.357151   
    215. B(C 206,C 198)                  1.5277         0.376795   
    216. B(O 207,C 206)                  1.3549         0.636544   
    217. B(O 207,C 203)                  1.4258         0.490550   
    218. B(O 208,C 206)                  1.2010         1.120626   
    219. B(H 210,H 115)                  2.1246         0.001541   
    220. B(H 212,H  56)                  2.4807         0.000417   
    221. B(H 212,H  42)                  2.5453         0.000329   
    222. B(C 213,H 211)                  1.0870         0.364112   
    223. B(C 215,C 213)                  1.5392         0.361096   
    224. B(C 215,H 210)                  1.0966         0.351496   
    225. B(H 216,C 213)                  1.0933         0.355704   
    226. B(H 217,C 215)                  1.0934         0.355663   
    227. B(N 218,C 213)                  1.4393         0.466879   
    228. B(N 218,H 209)                  1.0114         0.430426   
    229. B(O 220,H 119)                  2.4597         0.002105   
    230. B(C 221,H 214)                  1.0833         0.369089   
    231. B(C 221,H 212)                  1.0911         0.358602   
    232. B(C 223,C 221)                  1.5343         0.367690   
    233. B(C 223,O 182)                  1.4121         0.515991   
    234. B(H 224,O 118)                  2.3173         0.003553   
    235. B(H 224,H 119)                  2.2700         0.000903   
    236. B(O 225,C 221)                  1.4147         0.511050   
    237. B(C 227,O 226)                  1.3573         0.631113   
    238. B(C 227,O 219)                  1.2103         1.083010   
    239. B(C 227,N 218)                  1.3527         0.641704   
    240. B(C 228,O 225)                  1.4172         0.506419   
    241. B(C 229,C 228)                  1.5362         0.365111   
    242. B(C 229,C 223)                  1.5411         0.358621   
    243. B(C 229,H 222)                  1.0945         0.354236   
    244. B(C 229,O 220)                  1.4169         0.506894   
    245. B(C 230,C 228)                  1.5422         0.357160   
    246. B(C 230,O 226)                  1.4195         0.502100   
    247. B(H 231,C 230)                  1.1008         0.346153   
    248. B(C 232,C 230)                  1.5315         0.371556   
    249. B(C 232,H 224)                  1.0965         0.351663   
    250. B(C 232,O 220)                  1.4192         0.502748   
    251. B(C 232,H 119)                  2.5330         0.001796   
    252. B(H 233,C 232)                  1.0938         0.355167   
    253. B(H 233,H 119)                  2.5749         0.000295   
    254. B(H 234,C 228)                  1.0931         0.355972   
    255. B(H 235,C 223)                  1.0985         0.349035   
    256. B(H 236,C 194)                  1.0882         0.362494   
    257. B(C 239,H 238)                  1.0907         0.359165   
    258. B(C 239,H 237)                  1.0841         0.367987   
    259. B(H 241,C 194)                  1.0897         0.360493   
    260. B(H 242,C 239)                  1.0887         0.361764   
    261. B(N 243,C 193)                  1.4489         0.450760   
    262. B(C 244,N 243)                  1.2581         0.908529   
    263. B(C 244,H 240)                  1.1045         0.341416   
    264. B(C 244,C 239)                  1.5053         0.409093   
    265. B(O 245,H 109)                  2.7248         0.000795   
    266. B(N 247,H 101)                  2.5463         0.001532   
    267. B(C 248,N 247)                  1.2557         0.916601   
    268. B(C 248,C 246)                  1.4876         0.436521   
    269. B(H 249,C 248)                  1.1009         0.346028   
    270. B(H 250,H 159)                  2.3083         0.000785   
    271. B(C 251,N 247)                  1.4351         0.474231   
    272. B(C 251,H 250)                  1.0938         0.355170   
    273. B(H 252,C 251)                  1.1040         0.342023   
    274. B(C 253,C 251)                  1.5316         0.371347   
    275. B(H 254,C 253)                  1.0934         0.355667   
    276. B(C 255,C 253)                  1.5303         0.373098   
    277. B(H 256,C 246)                  1.0892         0.361211   
    278. B(H 257,H 163)                  2.7478         0.000156   
    279. B(H 257,C 246)                  1.0907         0.359113   
    280. B(H 258,C 253)                  1.0916         0.358047   
    281. B(C 259,C 255)                  1.5127         0.398127   
    282. B(C 259,O 245)                  1.2016         1.118142   
    283. B(H 260,C 255)                  1.0935         0.355442   
    284. B(O 261,C 259)                  1.3441         0.662343   
    285. B(O 261,C 215)                  1.4284         0.485882   
    286. B(H 262,C 255)                  1.0906         0.359303   
    287. B(H 263,H 101)                  2.4762         0.000424   
    288. B(H 263,C 246)                  1.0866         0.364565   
    289. A(H   0,C   1,C   4)          111.4267         0.325072   
    290. A(C   4,C   1,N  13)          137.0285         0.423257   
    291. A(H   0,C   1,N  13)          111.5424         0.375806   
    292. A(H   2,C   4,H   3)          109.0934         0.291780   
    293. A(C   1,C   4,H   3)          107.7507         0.325110   
    294. A(H   3,C   4,H   7)          108.6854         0.291307   
    295. A(C   1,C   4,H   2)          108.5181         0.325291   
    296. A(H   2,C   4,H   7)          109.4121         0.291461   
    297. A(C   1,C   4,H   7)          113.3012         0.324739   
    298. A(C   9,N   6,C  25)          120.8105         0.402860   
    299. A(H   5,N   6,C  25)          116.6496         0.359647   
    300. A(H   5,N   6,C   9)          117.8308         0.337505   
    301. A(N   6,C   9,C  11)          117.4192         0.364129   
    302. A(N   6,C   9,H  14)          109.1240         0.328885   
    303. A(H   8,C   9,H  14)          107.9499         0.289490   
    304. A(C  11,C   9,H  14)          106.1311         0.318020   
    305. A(H   8,C   9,C  11)          109.3688         0.318947   
    306. A(N   6,C   9,H   8)          106.5432         0.329856   
    307. A(H  10,C  11,N  13)          108.7964         0.333646   
    308. A(C   9,C  11,N  13)          105.2141         0.369949   
    309. A(C   9,C  11,H  10)          109.2723         0.317727   
    310. A(C   9,C  11,H  12)          111.5244         0.317412   
    311. A(H  10,C  11,H  12)          108.0363         0.287898   
    312. A(H  12,C  11,N  13)          113.9003         0.333309   
    313. A(C   1,N  13,C  11)          132.9751         0.438331   
    314. A(H  18,C  17,H  19)          109.3970         0.292144   
    315. A(H  74,C  17,C  75)          113.0202         0.331131   
    316. A(H  19,C  17,H  74)          109.1477         0.292393   
    317. A(H  18,C  17,C  75)          107.8294         0.330834   
    318. A(H  18,C  17,H  74)          107.1344         0.291559   
    319. A(H  19,C  17,C  75)          110.2114         0.331830   
    320. A(O  21,C  23,N  83)          119.8514         0.474177   
    321. A(O  30,C  23,N  83)          117.9242         0.429296   
    322. A(O  21,C  23,O  30)          122.2244         0.475498   
    323. A(O  24,C  25,O  40)          122.7875         0.471796   
    324. A(N   6,C  25,O  24)          125.0671         0.477489   
    325. A(N   6,C  25,O  40)          112.1265         0.425816   
    326. A(H  20,C  27,C  29)          114.1661         0.323178   
    327. A(H  20,C  27,O  35)          107.4013         0.337928   
    328. A(H  28,C  27,C  29)          109.4719         0.321633   
    329. A(H  28,C  27,O  35)          111.6692         0.336285   
    330. A(C  29,C  27,O  35)          104.4623         0.379060   
    331. A(H  20,C  27,H  28)          109.5984         0.288644   
    332. A(H  22,C  29,O  30)          107.7271         0.334553   
    333. A(O  30,C  29,C  31)          120.7140         0.374053   
    334. A(C  27,C  29,O  30)          114.2736         0.377047   
    335. A(C  27,C  29,C  31)           98.8056         0.359037   
    336. A(H  22,C  29,C  27)          109.2726         0.321617   
    337. A(H  22,C  29,C  31)          105.2840         0.319199   
    338. A(C  23,O  30,C  29)          114.0520         0.411222   
    339. A(C  33,C  31,O  34)          105.6645         0.377978   
    340. A(H  26,C  31,O  34)          109.5309         0.338574   
    341. A(H  26,C  31,C  33)          114.7038         0.321341   
    342. A(H  26,C  31,C  29)          111.3083         0.320565   
    343. A(C  29,C  31,C  33)          100.7468         0.357126   
    344. A(C  29,C  31,O  34)          114.6608         0.377012   
    345. A(O  35,C  33,C  37)          114.6540         0.376991   
    346. A(H  32,C  33,O  35)          108.6492         0.337661   
    347. A(H  32,C  33,C  37)          111.5606         0.320487   
    348. A(C  31,C  33,H  32)          114.2633         0.320886   
    349. A(C  31,C  33,C  37)          101.9247         0.357562   
    350. A(C  31,C  33,O  35)          105.6701         0.377487   
    351. A(C  31,O  34,C  38)          111.0050         0.397523   
    352. A(C  27,O  35,C  33)          110.4826         0.397843   
    353. A(C  33,C  37,H  36)          107.8624         0.319718   
    354. A(H  36,C  37,O  40)          108.1062         0.335309   
    355. A(H  36,C  37,C  38)          109.4511         0.320727   
    356. A(C  33,C  37,O  40)          116.0255         0.375218   
    357. A(C  33,C  37,C  38)           99.7046         0.358273   
    358. A(C  38,C  37,O  40)          115.2512         0.376470   
    359. A(O  34,C  38,H  41)          110.9936         0.335991   
    360. A(H  39,C  38,H  41)          109.6280         0.289057   
    361. A(C  37,C  38,H  39)          112.9122         0.322258   
    362. A(O  34,C  38,H  39)          107.9361         0.337377   
    363. A(O  34,C  38,C  37)          106.0149         0.376980   
    364. A(C  37,C  38,H  41)          109.3142         0.320956   
    365. A(C  25,O  40,C  37)          116.9990         0.407449   
    366. A(C  45,H  42,H 212)          123.5137         0.121900   
    367. A(C  48,O  43,C  61)          108.3035         0.401245   
    368. A(H  44,C  45,C  57)          111.4658         0.319709   
    369. A(H  44,C  45,O 118)          108.5748         0.333936   
    370. A(C  57,C  45,O 118)          111.8396         0.371233   
    371. A(H  42,C  45,O 118)          107.2531         0.333422   
    372. A(H  42,C  45,H  44)          108.6367         0.288801   
    373. A(H  42,C  45,C  57)          108.9348         0.319225   
    374. A(O  51,C  47,C  58)          113.6886         0.375933   
    375. A(C  48,C  47,C  58)          102.4377         0.354650   
    376. A(H  46,C  47,C  58)          107.9482         0.318057   
    377. A(H  46,C  47,O  51)          103.4030         0.339925   
    378. A(H  46,C  47,C  48)          108.9941         0.321313   
    379. A(C  48,C  47,O  51)          119.9800         0.380011   
    380. A(C  47,C  48,H  50)          111.3542         0.321642   
    381. A(O  43,C  48,H  50)          111.0688         0.338338   
    382. A(C  47,C  48,H  49)          113.1470         0.322296   
    383. A(O  43,C  48,C  47)          103.6086         0.377762   
    384. A(O  43,C  48,H  49)          107.2033         0.339039   
    385. A(H  49,C  48,H  50)          110.2130         0.290444   
    386. A(C  47,O  51,C  53)          121.3459         0.420566   
    387. A(C  53,O  52,H 173)          132.9155         0.206905   
    388. A(O  51,C  53,O  52)          125.5748         0.478167   
    389. A(O  52,C  53,N  55)          121.0383         0.476589   
    390. A(O  51,C  53,N  55)          113.3197         0.437335   
    391. A(H  56,N  55,C  57)          121.1518         0.339577   
    392. A(C  53,N  55,H  56)          109.1246         0.360334   
    393. A(C  53,N  55,C  57)          128.2884         0.409382   
    394. A(N  55,H  56,O 182)          166.3250         0.165380   
    395. A(N  55,H  56,H 212)          122.3548         0.124815   
    396. A(O 182,H  56,H 212)           69.4575         0.101891   
    397. A(H  54,C  57,N  55)          107.9954         0.333036   
    398. A(N  55,C  57,H 119)          107.4865         0.333109   
    399. A(C  45,C  57,H 119)          109.2673         0.320389   
    400. A(C  45,C  57,N  55)          112.5377         0.369454   
    401. A(H  54,C  57,H 119)          109.2553         0.290342   
    402. A(C  45,C  57,H  54)          110.2153         0.320320   
    403. A(C  47,C  58,O  65)          114.9828         0.378021   
    404. A(C  47,C  58,H  62)          110.2099         0.318366   
    405. A(C  61,C  58,H  62)          113.8904         0.320764   
    406. A(C  61,C  58,O  65)          108.5219         0.381041   
    407. A(C  47,C  58,C  61)          102.6524         0.353665   
    408. A(H  62,C  58,O  65)          106.7646         0.342092   
    409. A(C  64,H  59,H 173)          145.2110         0.122788   
    410. A(C  63,O  60,C  73)          120.9474         0.417922   
    411. A(H  15,C  61,C  58)          112.9018         0.320827   
    412. A(O  43,C  61,C  58)          107.8874         0.379256   
    413. A(O  43,C  61,C  63)          113.4874         0.376595   
    414. A(C  58,C  61,C  63)          103.9376         0.353979   
    415. A(H  15,C  61,C  63)          111.2659         0.318702   
    416. A(H  15,C  61,O  43)          107.4095         0.340613   
    417. A(C  61,C  63,C  64)          103.3057         0.356048   
    418. A(O  60,C  63,C  64)          107.1753         0.381265   
    419. A(O  60,C  63,C  61)          115.4790         0.376342   
    420. A(C  64,C  63,H  77)          111.7475         0.322122   
    421. A(C  61,C  63,H  77)          109.1594         0.318195   
    422. A(O  60,C  63,H  77)          109.8405         0.339837   
    423. A(C  63,C  64,H  78)          113.4065         0.323396   
    424. A(H  59,C  64,C  63)          107.8529         0.322244   
    425. A(C  63,C  64,O  65)          107.0488         0.379746   
    426. A(O  65,C  64,H  78)          107.3569         0.339898   
    427. A(H  59,C  64,H  78)          109.7387         0.290277   
    428. A(H  59,C  64,O  65)          111.4552         0.338665   
    429. A(C  58,O  65,C  64)          109.9834         0.404042   
    430. A(C  68,N  66,C  75)          121.3757         0.438514   
    431. A(N  66,C  68,C  71)          108.2740         0.374092   
    432. A(N  66,C  68,H  69)          113.6811         0.333943   
    433. A(H  16,C  68,H  69)          108.8396         0.289435   
    434. A(H  16,C  68,C  71)          110.2843         0.322288   
    435. A(H  69,C  68,C  71)          108.5013         0.321731   
    436. A(H  16,C  68,N  66)          107.2464         0.334530   
    437. A(H  67,N  70,C  71)          117.6406         0.340011   
    438. A(H  67,N  70,C  73)          117.9185         0.358481   
    439. A(C  71,N  70,C  73)          118.0243         0.404720   
    440. A(C  68,C  71,N  70)          113.2718         0.371240   
    441. A(C  68,C  71,H  72)          108.1703         0.322254   
    442. A(H  72,C  71,H  79)          108.7065         0.290467   
    443. A(N  70,C  71,H  79)          109.1377         0.332777   
    444. A(C  68,C  71,H  79)          110.5795         0.322963   
    445. A(N  70,C  71,H  72)          106.8129         0.332039   
    446. A(O  60,C  73,N  70)          116.4534         0.430482   
    447. A(N  70,C  73,O  80)          123.4396         0.474807   
    448. A(O  60,C  73,O  80)          120.0850         0.477688   
    449. A(C  17,H  74,H 134)          110.6165         0.117198   
    450. A(C  17,C  75,H  76)          116.5093         0.331504   
    451. A(N  66,C  75,H  76)          114.1947         0.376791   
    452. A(C  17,C  75,N  66)          129.2805         0.432064   
    453. A(C  73,O  80,H 177)          131.9717         0.203004   
    454. A(H  81,N  83,C  87)          114.2702         0.338261   
    455. A(C  23,N  83,C  87)          133.0102         0.403963   
    456. A(C  23,N  83,H  81)          110.3357         0.357390   
    457. A(H  86,C  87,C  88)          107.4508         0.319726   
    458. A(H  84,C  87,C  88)          110.7246         0.320516   
    459. A(N  83,C  87,C  88)          112.3818         0.367980   
    460. A(H  84,C  87,H  86)          108.4488         0.289761   
    461. A(N  83,C  87,H  86)          109.9630         0.330920   
    462. A(N  83,C  87,H  84)          107.8137         0.331748   
    463. A(C  87,C  88,O  89)          111.7604         0.369574   
    464. A(H  85,C  88,O  89)          108.4298         0.332291   
    465. A(H  82,C  88,O  89)          107.7006         0.332669   
    466. A(H  85,C  88,C  87)          111.1332         0.319716   
    467. A(H  82,C  88,C  87)          110.2878         0.320075   
    468. A(H  82,C  88,H  85)          107.3616         0.289369   
    469. A(C  88,O  89,C  91)          116.1407         0.407175   
    470. A(C  94,C  90,H  97)          109.4618         0.321319   
    471. A(H  92,C  90,H  97)          107.3437         0.289547   
    472. A(C  91,C  90,H  97)          107.0687         0.323718   
    473. A(H  92,C  90,C  94)          111.1261         0.321545   
    474. A(C  91,C  90,C  94)          113.5063         0.361168   
    475. A(C  91,C  90,H  92)          108.0765         0.323946   
    476. A(C  90,C  91,O  95)          124.9008         0.437416   
    477. A(O  89,C  91,O  95)          122.2513         0.477658   
    478. A(O  89,C  91,C  90)          112.8226         0.395737   
    479. A(H  93,C  94,C 130)          109.3254         0.321962   
    480. A(H  96,C  94,C 130)          108.3272         0.322182   
    481. A(C  90,C  94,C 130)          113.3302         0.357599   
    482. A(H  93,C  94,H  96)          107.4702         0.291837   
    483. A(C  90,C  94,H  96)          109.1568         0.322866   
    484. A(C  90,C  94,H  93)          109.0651         0.322645   
    485. A(C  99,N  98,C 161)          131.1740         0.435372   
    486. A(C 100,C  99,H 106)          111.7950         0.327301   
    487. A(N  98,C  99,H 106)          112.1906         0.373729   
    488. A(N  98,C  99,C 100)          135.9753         0.426410   
    489. A(H 102,C 100,C 104)          111.1615         0.321909   
    490. A(H 101,C 100,C 104)          107.2284         0.321125   
    491. A(C  99,C 100,C 104)          112.1633         0.364334   
    492. A(H 101,C 100,H 102)          107.6427         0.290390   
    493. A(C  99,C 100,H 102)          111.2761         0.327879   
    494. A(C  99,C 100,H 101)          107.0920         0.327074   
    495. A(N 247,H 101,H 263)           60.9978         0.099070   
    496. A(C 100,H 101,N 247)          167.9880         0.146807   
    497. A(C 100,H 101,H 263)          128.2971         0.123963   
    498. A(H 105,C 104,C 107)          107.8672         0.321631   
    499. A(H 103,C 104,C 107)          109.0550         0.321805   
    500. A(C 100,C 104,C 107)          114.7320         0.357915   
    501. A(H 103,C 104,H 105)          107.4419         0.290049   
    502. A(C 100,C 104,H 105)          108.2181         0.321233   
    503. A(C 100,C 104,H 103)          109.2783         0.321406   
    504. A(C 104,C 107,C 108)          112.4702         0.358622   
    505. A(H 157,C 107,H 159)          107.7677         0.289903   
    506. A(C 108,C 107,H 159)          108.9347         0.321797   
    507. A(C 104,C 107,H 159)          108.9371         0.321586   
    508. A(C 108,C 107,H 157)          109.1501         0.321893   
    509. A(C 104,C 107,H 157)          109.4677         0.321682   
    510. A(C 110,C 108,H 120)          108.1969         0.328501   
    511. A(C 107,C 108,H 120)          110.0514         0.321868   
    512. A(C 107,C 108,C 110)          114.8574         0.366554   
    513. A(H 120,C 108,H 165)          106.6153         0.289480   
    514. A(C 110,C 108,H 165)          107.6053         0.327951   
    515. A(C 107,C 108,H 165)          109.1749         0.321334   
    516. A(C 110,H 109,O 245)          116.8873         0.138591   
    517. A(H 109,C 110,N 114)          122.4579         0.371736   
    518. A(C 108,C 110,N 114)          121.7631         0.427828   
    519. A(C 108,C 110,H 109)          115.7770         0.327203   
    520. A(H 115,C 112,C 123)          107.3154         0.321196   
    521. A(N 114,C 112,C 123)          112.9442         0.371866   
    522. A(H 111,C 112,C 123)          109.9089         0.319886   
    523. A(N 114,C 112,H 115)          105.8569         0.332043   
    524. A(H 111,C 112,H 115)          107.9623         0.287381   
    525. A(H 111,C 112,N 114)          112.5195         0.330672   
    526. A(C 110,N 114,C 112)          121.3752         0.434074   
    527. A(C 112,H 115,H 210)          126.2696         0.135694   
    528. A(O 118,C 116,C 121)          111.1722         0.399593   
    529. A(O 113,C 116,C 121)          125.7353         0.443130   
    530. A(O 113,C 116,O 118)          123.0543         0.483833   
    531. A(C 116,O 118,H 224)          141.3950         0.180860   
    532. A(C  45,O 118,C 116)          119.2022         0.411121   
    533. A(C  45,O 118,H 224)           97.5152         0.174449   
    534. A(H 224,H 119,H 233)           42.6426         0.095660   
    535. A(C  57,H 119,C 232)          144.3071         0.149738   
    536. A(O 220,H 119,H 224)           52.4907         0.101846   
    537. A(C  57,H 119,H 233)          159.0080         0.121262   
    538. A(H 224,H 119,C 232)           25.6478         0.101538   
    539. A(C  57,H 119,O 220)          138.6752         0.151231   
    540. A(C 232,H 119,H 233)           24.7113         0.098730   
    541. A(O 220,H 119,H 233)           47.9508         0.098969   
    542. A(O 220,H 119,C 232)           32.9862         0.107767   
    543. A(C  57,H 119,H 224)          120.3412         0.130574   
    544. A(C 123,C 121,H 127)          111.8891         0.322109   
    545. A(H 117,C 121,H 127)          106.7825         0.289723   
    546. A(C 116,C 121,H 127)          108.2326         0.325667   
    547. A(H 117,C 121,C 123)          109.8087         0.321714   
    548. A(C 116,C 121,C 123)          113.8716         0.363386   
    549. A(C 116,C 121,H 117)          105.8509         0.325266   
    550. A(C 121,C 123,H 125)          109.2370         0.322439   
    551. A(C 112,C 123,H 125)          108.5461         0.322431   
    552. A(C 121,C 123,H 122)          109.6736         0.322574   
    553. A(C 112,C 123,H 122)          109.6070         0.322566   
    554. A(C 112,C 123,C 121)          112.1328         0.359251   
    555. A(H 122,C 123,H 125)          107.5273         0.290750   
    556. A(H 131,C 130,N 132)          112.0873         0.330725   
    557. A(H 129,C 130,N 132)          105.8541         0.331830   
    558. A(C  94,C 130,N 132)          112.6273         0.370504   
    559. A(H 129,C 130,H 131)          107.8629         0.287376   
    560. A(C  94,C 130,H 131)          110.4003         0.318970   
    561. A(C  94,C 130,H 129)          107.6975         0.320021   
    562. A(C 130,N 132,C 133)          122.3610         0.433936   
    563. A(N 132,C 133,C 138)          122.5195         0.427506   
    564. A(H 128,C 133,C 138)          114.7206         0.326045   
    565. A(H 128,C 133,N 132)          122.7164         0.370582   
    566. A(H  74,H 134,C 136)          147.5704         0.117059   
    567. A(H 135,C 136,C 137)          109.3245         0.320841   
    568. A(H 134,C 136,C 137)          108.1390         0.320285   
    569. A(H 134,C 136,H 135)          106.8310         0.290296   
    570. A(C 137,C 136,C 179)          114.7788         0.355548   
    571. A(H 135,C 136,C 179)          108.4949         0.320987   
    572. A(H 134,C 136,C 179)          108.9854         0.320430   
    573. A(C 138,C 137,H 139)          109.3760         0.321027   
    574. A(C 136,C 137,H 139)          109.4974         0.320961   
    575. A(H 124,C 137,H 139)          107.5026         0.290897   
    576. A(C 136,C 137,C 138)          112.7403         0.355457   
    577. A(H 124,C 137,C 138)          108.3686         0.320922   
    578. A(H 124,C 137,C 136)          109.2138         0.320856   
    579. A(C 133,C 138,C 137)          115.5540         0.364595   
    580. A(H 126,C 138,C 133)          108.8409         0.328531   
    581. A(C 137,C 138,H 140)          107.6148         0.319443   
    582. A(C 133,C 138,H 140)          106.2866         0.327279   
    583. A(H 126,C 138,C 137)          110.3240         0.320655   
    584. A(H 126,C 138,H 140)          107.8928         0.289288   
    585. A(H 141,C 142,C 148)          111.1631         0.321114   
    586. A(O 145,C 142,C 148)          115.3308         0.377664   
    587. A(C 143,C 142,C 148)          101.6138         0.358152   
    588. A(C 143,C 142,O 145)          105.7045         0.379734   
    589. A(H 141,C 142,O 145)          108.7509         0.339725   
    590. A(H 141,C 142,C 143)          114.1705         0.322777   
    591. A(O 146,C 143,C 186)          114.5488         0.379147   
    592. A(H 144,C 143,C 186)          111.5795         0.322051   
    593. A(C 142,C 143,C 186)          101.9443         0.359207   
    594. A(H 144,C 143,O 146)          108.7262         0.340059   
    595. A(C 142,C 143,O 146)          105.7388         0.380086   
    596. A(C 142,C 143,H 144)          114.1745         0.322805   
    597. A(C 142,O 145,C 183)          110.7632         0.398724   
    598. A(C 143,O 146,C 153)          110.8103         0.399526   
    599. A(C 153,C 148,O 156)          115.2549         0.380455   
    600. A(H 147,C 148,O 156)          106.9933         0.338241   
    601. A(C 142,C 148,O 156)          118.2338         0.376668   
    602. A(H 147,C 148,C 153)          109.8091         0.323588   
    603. A(C 142,C 148,C 153)           99.1327         0.359755   
    604. A(C 142,C 148,H 147)          106.9615         0.320539   
    605. A(O 156,C 152,N 162)          112.8370         0.427379   
    606. A(O 149,C 152,N 162)          124.7467         0.480783   
    607. A(O 149,C 152,O 156)          122.3878         0.475260   
    608. A(H 154,C 153,H 155)          109.6396         0.291075   
    609. A(C 148,C 153,H 155)          109.3361         0.323786   
    610. A(O 146,C 153,H 155)          111.2154         0.337983   
    611. A(C 148,C 153,H 154)          113.3372         0.325100   
    612. A(O 146,C 153,H 154)          107.8405         0.339377   
    613. A(O 146,C 153,C 148)          105.4196         0.379907   
    614. A(C 148,O 156,C 152)          115.7725         0.410412   
    615. A(C 161,C 158,N 162)          117.0428         0.366146   
    616. A(H 151,C 158,N 162)          109.3658         0.331136   
    617. A(H 150,C 158,N 162)          105.5216         0.332062   
    618. A(H 151,C 158,C 161)          105.8814         0.321042   
    619. A(H 150,C 158,C 161)          110.2674         0.321930   
    620. A(H 150,C 158,H 151)          108.5675         0.292506   
    621. A(C 107,H 159,H 250)          137.3957         0.129212   
    622. A(H 160,C 161,H 163)          107.4900         0.289164   
    623. A(C 158,C 161,H 163)          109.3428         0.319868   
    624. A(N  98,C 161,H 163)          107.4297         0.333381   
    625. A(C 158,C 161,H 160)          110.8426         0.319270   
    626. A(N  98,C 161,H 160)          113.9575         0.332748   
    627. A(N  98,C 161,C 158)          107.6637         0.370138   
    628. A(C 158,N 162,H 164)          116.9330         0.339363   
    629. A(C 152,N 162,H 164)          116.9562         0.361743   
    630. A(C 152,N 162,C 158)          120.9133         0.404054   
    631. A(C 161,H 163,H 257)          121.9777         0.116893   
    632. A(C 167,N 166,C 176)          130.0357         0.437343   
    633. A(H 170,C 167,H 178)          108.2172         0.289376   
    634. A(C 168,C 167,H 178)          108.8966         0.318117   
    635. A(N 166,C 167,H 178)          113.9511         0.333788   
    636. A(C 168,C 167,H 170)          108.8185         0.319085   
    637. A(N 166,C 167,H 170)          107.1740         0.334823   
    638. A(N 166,C 167,C 168)          109.6591         0.370081   
    639. A(N 171,C 168,H 174)          105.8250         0.330157   
    640. A(H 169,C 168,H 174)          109.2927         0.290690   
    641. A(C 167,C 168,H 174)          108.4077         0.319416   
    642. A(H 169,C 168,N 171)          107.8661         0.330021   
    643. A(C 167,C 168,N 171)          117.8142         0.364349   
    644. A(C 167,C 168,H 169)          107.4414         0.319287   
    645. A(C 172,N 171,H 173)          116.9676         0.362515   
    646. A(C 168,N 171,H 173)          119.0928         0.336552   
    647. A(C 168,N 171,C 172)          120.5350         0.407407   
    648. A(O 175,C 172,O 182)          122.2138         0.467147   
    649. A(N 171,C 172,O 182)          112.1920         0.426847   
    650. A(N 171,C 172,O 175)          125.5935         0.482765   
    651. A(O  52,H 173,H  59)           55.4947         0.102527   
    652. A(H  59,H 173,N 171)          137.8415         0.123815   
    653. A(O  52,H 173,N 171)          165.4362         0.171625   
    654. A(H 177,C 176,C 179)          113.5183         0.326702   
    655. A(N 166,C 176,C 179)          133.9701         0.424001   
    656. A(N 166,C 176,H 177)          112.4915         0.375704   
    657. A(O  80,H 177,C 176)          148.7374         0.166594   
    658. A(H 180,C 179,H 181)          107.1973         0.289683   
    659. A(C 176,C 179,H 181)          106.8147         0.324676   
    660. A(C 136,C 179,H 181)          109.1581         0.319950   
    661. A(C 176,C 179,H 180)          110.3883         0.325505   
    662. A(C 136,C 179,H 180)          110.3911         0.320762   
    663. A(C 136,C 179,C 176)          112.6732         0.361174   
    664. A(H  56,O 182,C 223)          108.3027         0.181663   
    665. A(H  56,O 182,C 172)          134.3156         0.183442   
    666. A(C 172,O 182,C 223)          115.4404         0.407335   
    667. A(H 189,C 183,H 191)          109.6676         0.290872   
    668. A(C 186,C 183,H 191)          113.0182         0.324673   
    669. A(O 145,C 183,H 191)          108.0858         0.338994   
    670. A(C 186,C 183,H 189)          109.4584         0.323201   
    671. A(O 145,C 183,H 189)          111.2591         0.337431   
    672. A(O 145,C 183,C 186)          105.2967         0.379029   
    673. A(C 185,O 184,C 186)          115.1160         0.410713   
    674. A(O 188,C 185,N 199)          124.3381         0.474871   
    675. A(O 184,C 185,N 199)          112.6717         0.427869   
    676. A(O 184,C 185,O 188)          122.9851         0.475754   
    677. A(O 184,C 186,H 187)          108.1734         0.336512   
    678. A(C 183,C 186,H 187)          108.7547         0.323451   
    679. A(C 143,C 186,H 187)          107.7972         0.321695   
    680. A(C 183,C 186,O 184)          116.8036         0.377647   
    681. A(C 143,C 186,O 184)          115.5435         0.375485   
    682. A(C 143,C 186,C 183)           99.1867         0.360367   
    683. A(H 195,C 193,N 243)          112.3225         0.330158   
    684. A(C 194,C 193,N 243)          112.5806         0.371197   
    685. A(H 192,C 193,N 243)          105.2490         0.331609   
    686. A(C 194,C 193,H 195)          110.1346         0.320633   
    687. A(H 192,C 193,H 195)          107.9682         0.288138   
    688. A(H 192,C 193,C 194)          108.2931         0.322026   
    689. A(H 236,C 194,H 241)          107.1056         0.291192   
    690. A(C 198,C 194,H 241)          109.2200         0.321413   
    691. A(C 193,C 194,H 241)          107.8800         0.322956   
    692. A(C 198,C 194,H 236)          108.4226         0.321704   
    693. A(C 193,C 194,H 236)          109.2893         0.323250   
[...]
   937. D(O  89,C  91,C  90,H  92)     55.25  0.000232   -0.55     54.69   
   938. D(O  95,C  91,O  89,C  88)     -1.61 -0.000557    0.50     -1.11   
   939. D(C  90,C  91,O  89,C  88)    178.40 -0.000656    0.20    178.60   
   940. D(H  96,C  94,C  90,C  91)    -62.06 -0.000957    0.83    -61.23   
   941. D(H  93,C  94,C  90,H  92)    176.32  0.000260    0.51    176.82   
   942. D(H  93,C  94,C  90,C  91)     54.97 -0.000628    0.80     55.77   
   943. D(H 106,C  99,N  98,C 161)    178.13  0.000423   -0.16    177.96   
   944. D(C 100,C  99,N  98,C 161)      0.15 -0.000543   -0.05      0.10   
   945. D(H 102,C 100,C  99,N  98)    -33.76  0.000186   -0.84    -34.59   
   946. D(H 101,C 100,C  99,H 106)    -93.19  0.000612   -1.13    -94.33   
   947. D(H 101,C 100,C  99,N  98)     84.79  0.001574   -1.25     83.55   
   948. D(H 257,H 101,C 100,H 102)    -46.12  0.001214   -2.01    -48.14   
   949. D(H 257,H 101,C 100,C  99)   -166.97 -0.000143   -1.61   -168.58   
   950. D(H 105,C 104,C 100,C  99)    -46.78 -0.000179   -0.58    -47.36   
   951. D(H 103,C 104,C 100,H 101)   -173.12  0.000566   -0.61   -173.73   
   952. D(H 103,C 104,C 100,C  99)     69.39 -0.000416   -0.53     68.86   
   953. D(H 157,C 107,C 104,C 100)    -65.90 -0.000195    0.17    -65.74   
   954. D(C 108,C 107,C 104,H 103)    -64.06 -0.000134    0.04    -64.02   
   955. D(C 108,C 107,C 104,C 100)    172.92 -0.000083    0.19    173.11   
   956. D(H 120,C 108,C 107,C 104)    -64.26 -0.000008   -0.46    -64.72   
   957. D(C 110,C 108,C 107,H 157)     50.65  0.000022   -0.46     50.20   
   958. D(C 110,C 108,C 107,C 104)    171.84 -0.000151   -0.48    171.36   
   959. D(N 114,C 110,C 108,C 107)    150.96 -0.000122    0.14    151.10   
   960. D(H 109,C 110,C 108,H 120)   -157.25 -0.000117   -0.08   -157.33   
   961. D(H 109,C 110,C 108,C 107)    -32.41 -0.000096   -0.04    -32.45   
   962. D(C 110,N 114,C 112,H 115)     99.17 -0.000154    0.33     99.50   
   963. D(C 110,N 114,C 112,H 111)    -19.66 -0.000308    0.37    -19.29   
   964. D(C 112,N 114,C 110,H 109)      0.69 -0.000275    0.06      0.75   
   965. D(C 112,N 114,C 110,C 108)    177.06 -0.000248   -0.14    176.93   
   966. D(O 245,H 115,C 112,N 114)   -139.56  0.001096   -1.39   -140.95   
   967. D(O 245,H 115,C 112,H 111)    -17.71  0.001254   -1.49    -19.20   
   968. D(C  45,O 118,C 116,C 121)    169.16  0.000580    0.13    169.30   
   969. D(C  45,O 118,C 116,O 113)     -8.22  0.000192   -0.39     -8.61   
   970. D(C 116,O 118,C  45,H  44)      4.48  0.000145   -0.35      4.13   
   971. D(C 116,O 118,C  45,H  42)   -113.19 -0.000265   -0.46   -113.65   
   972. D(H 224,H 119,C  57,H  54)   -161.49 -0.000410    0.86   -160.63   
   973. D(H 224,H 119,C  57,C  45)     78.55 -0.000256    0.82     79.37   
   974. D(H 233,H 119,C  57,C  45)     96.06 -0.000246    0.72     96.78   
   975. D(C 123,C 121,H 117,H 210)   -143.20  0.001349   -1.92   -145.12   
   976. D(C 116,C 121,H 117,H 210)     92.63  0.001593   -2.14     90.49   
   977. D(C 123,C 121,C 116,O 113)      2.89 -0.000142   -0.03      2.86   
   978. D(H 117,C 121,C 116,O 118)    -51.80 -0.000088   -0.55    -52.35   
   979. D(H 117,C 121,C 116,O 113)    125.49  0.000310   -0.02    125.48   
   980. D(H 122,C 123,C 121,C 116)    -67.98 -0.000038    0.38    -67.60   
   981. D(C 112,C 123,C 121,H 117)     51.95 -0.000098    0.37     52.32   
   982. D(C 112,C 123,C 121,C 116)    169.80  0.000055    0.41    170.22   
   983. D(C 121,C 123,C 112,N 114)   -172.37 -0.000297    0.05   -172.32   
   984. D(C 121,C 123,C 112,H 111)     61.81 -0.000125    0.11     61.92   
   985. D(H 122,C 123,C 112,H 111)    -60.06 -0.000049    0.16    -59.91   
   986. D(H 131,C 130,C  94,C  90)    -64.54  0.001131   -1.06    -65.61   
   987. D(H 129,C 130,C  94,H  93)    174.79 -0.000285   -0.87    173.91   
   988. D(H 129,C 130,C  94,C  90)     52.94  0.000841   -1.08     51.86   
   989. D(C 133,N 132,C 130,H 129)    -97.71  0.000353    0.61    -97.09   
   990. D(C 133,N 132,C 130,C  94)    144.42 -0.001123    1.00    145.42   
   991. D(C 138,C 133,N 132,C 130)   -179.38  0.000403   -1.35   -180.72   
   992. D(H 128,C 133,N 132,C 130)     -2.72 -0.000396    0.37     -2.35   
   993. D(C 138,C 137,C 136,H 134)     57.46  0.000189    0.21     57.67   
   994. D(H 124,C 137,C 136,H 135)   -179.17 -0.000057   -0.06   -179.24   
   995. D(H 124,C 137,C 136,H 134)    -63.33  0.000118   -0.03    -63.36   
   996. D(C 133,C 138,C 137,H 124)    -53.92  0.000105   -0.46    -54.38   
   997. D(H 126,C 138,C 137,C 136)     60.90 -0.000064   -0.28     60.61   
   998. D(H 126,C 138,C 137,H 124)   -178.26 -0.000042   -0.02   -178.28   
   999. D(C 137,C 138,C 133,H 128)     29.77 -0.000159    0.26     30.03   
  1000. D(H 126,C 138,C 133,N 132)    -28.05 -0.000518    1.39    -26.66   
  1001. D(H 126,C 138,C 133,H 128)    155.06  0.000231   -0.19    154.87   
  1002. D(O 146,C 143,C 142,H 141)   -148.41  0.000059   -0.36   -148.77   
  1003. D(H 144,C 143,C 142,O 145)   -148.50  0.000059   -0.35   -148.85   
  1004. D(H 144,C 143,C 142,H 141)    -28.86 -0.000021   -0.32    -29.18   
  1005. D(C 183,O 145,C 142,C 143)      4.57  0.000006    0.31      4.87   
  1006. D(C 183,O 145,C 142,H 141)   -118.54  0.000159    0.26   -118.28   
  1007. D(C 153,O 146,C 143,H 144)   -118.50  0.000237    0.22   -118.28   
  1008. D(C 153,O 146,C 143,C 142)      4.53  0.000212    0.24      4.76   
  1009. D(C 153,C 148,C 142,H 141)    160.94  0.000054    0.26    161.20   
  1010. D(H 147,C 148,C 142,C 143)    -75.51  0.000451    0.14    -75.38   
  1011. D(H 147,C 148,C 142,H 141)     46.51  0.000139    0.21     46.72   
  1012. D(H 154,C 153,C 148,C 142)   -155.36 -0.000058   -0.10   -155.46   
  1013. D(O 146,C 153,C 148,H 147)     74.39 -0.000331   -0.05     74.34   
  1014. D(O 146,C 153,C 148,C 142)    -37.69 -0.000195   -0.05    -37.74   
  1015. D(H 154,C 153,O 146,C 143)    143.15 -0.000076   -0.09    143.06   
  1016. D(C 148,C 153,O 146,C 143)     21.63 -0.000049   -0.10     21.53   
  1017. D(C 148,O 156,C 152,N 162)    174.81  0.000251    1.34    176.15   
  1018. D(C 148,O 156,C 152,O 149)     -3.13  0.000052   -0.45     -3.58   
  1019. D(C 152,O 156,C 148,H 147)     -3.06  0.000124   -0.75     -3.81   
  1020. D(C 152,O 156,C 148,C 142)    117.98 -0.000753   -0.57    117.40   
  1021. D(H 160,C 161,C 158,H 150)     33.84 -0.000211   -0.30     33.54   
  1022. D(N  98,C 161,C 158,H 151)     25.47 -0.000123   -0.36     25.12   
  1023. D(N  98,C 161,C 158,H 150)    -91.06  0.000654   -0.51    -91.57   
  1024. D(H 160,C 161,N  98,C  99)     36.98 -0.000292   -0.15     36.83   
  1025. D(C 158,C 161,N  98,C  99)    160.10 -0.001595    0.13    160.23   
  1026. D(H 164,N 162,C 158,H 150)    178.03 -0.000452    0.29    178.31   
  1027. D(C 152,N 162,C 158,H 151)    -91.63  0.000416   -0.11    -91.74   
  1028. D(C 152,N 162,C 158,H 150)     24.88 -0.000198    0.01     24.88   
  1029. D(H 164,N 162,C 152,O 149)   -172.79 -0.000068    0.22   -172.58   
  1030. D(C 158,N 162,C 152,O 156)    162.71 -0.000530   -1.35    161.36   
  1031. D(C 158,N 162,C 152,O 149)    -19.40 -0.000333    0.49    -18.90   
  1032. D(H 170,C 167,N 166,C 176)     79.78 -0.001407    2.09     81.87   
  1033. D(C 168,C 167,N 166,C 176)   -163.79 -0.002364    2.21   -161.58   
  1034. D(N 171,C 168,C 167,N 166)   -165.72  0.000949    0.03   -165.69   
  1035. D(H 169,C 168,C 167,H 170)     71.57 -0.000421    0.47     72.03   
  1036. D(H 169,C 168,C 167,N 166)    -44.85 -0.000123    0.39    -44.46   
  1037. D(H 173,N 171,C 168,C 167)     77.84 -0.000471   -1.38     76.47   
  1038. D(C 172,N 171,C 168,H 169)    108.58  0.000152   -0.92    107.66   
  1039. D(C 172,N 171,C 168,C 167)   -131.42 -0.000814   -0.75   -132.16   
  1040. D(O 182,C 172,N 171,C 168)   -160.01 -0.002701    1.54   -158.47   
  1041. D(O 175,C 172,N 171,H 173)    172.03 -0.000528    0.42    172.46   
  1042. D(O 175,C 172,N 171,C 168)     22.00 -0.000048   -0.13     21.88   
  1043. D(C 179,C 176,N 166,C 167)      0.01 -0.001063    0.62      0.63   
  1044. D(H 177,C 176,N 166,C 167)   -179.71 -0.000206    0.26   -179.45   
  1045. D(H 180,C 179,C 176,N 166)    -57.97  0.000531   -0.52    -58.49   
  1046. D(C 136,C 179,C 176,H 177)      0.15  0.000061   -0.25     -0.11   
  1047. D(C 136,C 179,C 176,N 166)   -179.58  0.000912   -0.61   -180.19   
  1048. D(H 180,C 179,C 136,H 134)   -179.72 -0.000328    0.49   -179.24   
  1049. D(C 176,C 179,C 136,H 135)     56.88 -0.000410    0.59     57.47   
  1050. D(C 176,C 179,C 136,H 134)    -58.86 -0.000573    0.57    -58.29   
  1051. D(C 223,O 182,C 172,O 175)     -4.47 -0.001655    0.94     -3.52   
  1052. D(C 223,O 182,C 172,N 171)    177.49  0.000928   -0.67    176.82   
  1053. D(H 189,C 183,O 145,C 142)    -97.01 -0.000010   -0.04    -97.05   
  1054. D(C 186,C 183,O 145,C 142)     21.49 -0.000008   -0.05     21.43   
  1055. D(N 199,C 185,O 184,C 186)   -178.55 -0.000181    1.87   -176.67   
  1056. D(O 188,C 185,O 184,C 186)      0.90  0.000417   -0.15      0.75   
  1057. D(C 183,C 186,O 184,C 185)    -96.23 -0.000207   -0.62    -96.85   
  1058. D(C 143,C 186,O 184,C 185)    147.37 -0.000173   -0.76    146.60   
  1059. D(O 184,C 186,C 183,O 145)   -163.47  0.000248   -0.50   -163.97   
  1060. D(C 143,C 186,C 183,H 189)     81.98  0.000021   -0.25     81.73   
  1061. D(C 143,C 186,C 183,O 145)    -37.63 -0.000003   -0.23    -37.86   
  1062. D(O 184,C 186,C 143,C 142)    163.82  0.000386    0.48    164.30   
  1063. D(C 183,C 186,C 143,H 144)    160.91  0.000096    0.30    161.21   
  1064. D(C 183,C 186,C 143,C 142)     38.89  0.000079    0.38     39.27   
  1065. D(H 236,C 194,C 193,H 192)   -174.64  0.000127    0.08   -174.57   
  1066. D(C 198,C 194,C 193,H 195)     65.00  0.000278    0.03     65.03   
  1067. D(C 198,C 194,C 193,H 192)    -52.68  0.000255    0.06    -52.62   
  1068. D(H 197,C 198,C 194,C 193)     62.57 -0.000208   -0.04     62.53   
  1069. D(H 196,C 198,C 194,H 236)     65.64 -0.000057   -0.03     65.62   
  1070. D(H 196,C 198,C 194,C 193)    -56.68 -0.000161   -0.01    -56.69   
  1071. D(C 204,N 199,C 185,O 184)   -163.32 -0.000109   -1.39   -164.70   
  1072. D(H 200,N 199,C 185,O 188)    173.68 -0.000334    1.00    174.68   
  1073. D(H 200,N 199,C 185,O 184)     -6.88  0.000269   -1.04     -7.92   
  1074. D(H 202,C 204,C 203,H 190)    137.74 -0.000004   -0.51    137.23   
  1075. D(N 199,C 204,C 203,H 201)    134.57  0.000109   -0.82    133.74   
  1076. D(N 199,C 204,C 203,H 190)     14.63  0.000174   -0.75     13.88   
  1077. D(C 203,C 204,N 199,C 185)   -139.27 -0.000056    1.10   -138.17   
  1078. D(H 202,C 204,N 199,H 200)    -57.02 -0.000208    0.47    -56.55   
  1079. D(H 202,C 204,N 199,C 185)     99.25  0.000168    0.83    100.08   
  1080. D(O 208,C 206,C 198,C 194)      3.89  0.000415   -0.75      3.13   
  1081. D(O 207,C 206,C 198,H 196)     62.55  0.000064    0.64     63.19   
  1082. D(O 207,C 206,C 198,C 194)   -176.73  0.000395    0.66   -176.07   
  1083. D(C 203,O 207,C 206,O 208)    178.72 -0.000147    0.76    179.48   
  1084. D(C 203,O 207,C 206,C 198)     -0.70 -0.000128   -0.55     -1.25   
  1085. D(C 206,O 207,C 203,H 201)    -24.94 -0.000439   -0.28    -25.22   
  1086. D(C 206,O 207,C 203,H 190)     94.61 -0.000557   -0.31     94.30   
  1087. D(C 215,H 210,H 117,C 121)   -160.02 -0.000598    2.07   -157.95   
  1088. D(C 221,H 212,H  56,O 220)     17.19 -0.000755    1.76     18.95   
  1089. D(C 221,H 212,H  56,N  55)   -162.11 -0.000556    1.39   -160.72   
  1090. D(H 217,C 215,C 213,H 211)     50.64 -0.000325    0.10     50.74   
  1091. D(H 210,C 215,C 213,H 216)    171.28 -0.000073   -0.02    171.26   
  1092. D(H 210,C 215,C 213,H 211)    -70.05 -0.000115    0.04    -70.01   
  1093. D(H 217,C 215,H 210,H 117)      2.99 -0.000940    1.04      4.02   
  1094. D(C 213,C 215,H 210,H 117)    124.25 -0.001227    1.10    125.34   
  1095. D(C 227,N 218,C 213,H 211)    -11.30  0.000115    0.25    -11.05   
  1096. D(H 209,N 218,C 213,C 215)     51.53  0.000175    0.13     51.66   
  1097. D(H 209,N 218,C 213,H 211)    172.06 -0.000064    0.04    172.10   
  1098. D(C 232,O 220,H  56,N  55)     55.21 -0.000506    0.36     55.58   
  1099. D(C 229,O 220,H  56,H 212)     -1.42  0.000516   -1.59     -3.01   
  1100. D(C 229,O 220,H  56,N  55)    168.28 -0.000114   -0.42    167.86   
  1101. D(C 223,C 221,H 212,H  56)    -59.76  0.000791   -1.51    -61.27   
  1102. D(H 214,C 221,H 212,H  56)    174.35  0.000789   -1.53    172.82   
  1103. D(C 229,C 223,C 221,H 212)     78.24 -0.000282   -0.06     78.18   
  1104. D(O 182,C 223,C 221,H 214)     71.54 -0.000144   -0.31     71.24   
  1105. D(O 182,C 223,C 221,H 212)    -52.86 -0.000302   -0.34    -53.19   
  1106. D(C 229,C 223,O 182,C 172)    135.02 -0.001426    0.22    135.24   
  1107. D(C 221,C 223,O 182,C 172)   -104.69 -0.001640    0.39   -104.30   
  1108. D(H  42,H 224,H 119,C  57)    -40.69  0.000172   -0.39    -41.08   
  1109. D(C 232,H 224,H 119,H 233)    -19.21 -0.000157    0.15    -19.06   
  1110. D(C 232,H 224,H 119,C  57)    136.19 -0.000061   -0.01    136.18   
  1111. D(H  42,H 224,H  56,N  55)     18.84  0.000406   -0.62     18.21   
  1112. D(C 232,H 224,H  56,H 212)     78.86 -0.000166   -0.87     77.99   
  1113. D(C 232,H 224,H  56,N  55)   -159.32  0.000557   -0.89   -160.21   
  1114. D(H  56,H 224,H  42,C  45)    -65.44 -0.000026    0.42    -65.02   
  1115. D(C 232,H 224,H  42,C  45)    -41.05  0.000039    0.31    -40.75   
  1116. D(C 228,O 225,C 221,H 214)    138.13 -0.000029   -0.19    137.95   
  1117. D(C 228,O 225,C 221,H 212)   -101.45  0.000053   -0.21   -101.66   
  1118. D(O 219,C 227,O 226,C 230)    -10.96 -0.000195   -0.14    -11.10   
  1119. D(N 218,C 227,O 226,C 230)    167.85 -0.000454   -0.05    167.81   
  1120. D(O 226,C 227,N 218,H 209)    175.13  0.000199   -0.04    175.08   
  1121. D(O 219,C 227,N 218,C 213)    177.26 -0.000231   -0.15    177.11   
  1122. D(O 219,C 227,N 218,H 209)     -6.04 -0.000054    0.05     -5.99   
  1123. D(C 230,C 228,O 225,C 221)    123.43  0.000026    0.24    123.67   
  1124. D(C 229,C 228,O 225,C 221)     12.36 -0.000055    0.30     12.66   
  1125. D(H 222,C 229,C 228,O 225)   -157.45  0.000148   -0.34   -157.80   
  1126. D(O 220,C 229,C 228,C 230)    -38.23 -0.000022   -0.28    -38.51   
  1127. D(O 220,C 229,C 228,O 225)     82.07  0.000275   -0.34     81.72   
  1128. D(H 222,C 229,C 223,O 182)    -63.52 -0.000207    0.41    -63.10   
  1129. D(O 220,C 229,C 223,C 221)    -64.26 -0.000241    0.48    -63.78   
  1130. D(O 220,C 229,C 223,O 182)     64.87 -0.000457    0.62     65.49   
  1131. D(C 223,C 229,O 220,C 232)    136.55  0.000325    0.33    136.89   
  1132. D(H 222,C 229,O 220,H  56)    161.65 -0.000516    1.42    163.07   
  1133. D(H 222,C 229,O 220,C 232)    -93.83 -0.000017    0.54    -93.29   
  1134. D(H 231,C 230,C 228,O 225)    161.09  0.000071   -0.06    161.03   
  1135. D(O 226,C 230,C 228,C 229)    152.12 -0.000116   -0.10    152.02   
  1136. D(O 226,C 230,C 228,O 225)     39.08 -0.000124   -0.03     39.05   
  1137. D(H 231,C 230,O 226,C 227)      1.40  0.000023   -0.40      1.01   
  1138. D(C 228,C 230,O 226,C 227)    123.25  0.000169   -0.41    122.85   
  1139. D(O 220,C 232,C 230,C 228)    -16.31 -0.000022    0.36    -15.95   
  1140. D(O 220,C 232,C 230,O 226)   -141.15 -0.000668    0.48   -140.67   
  1141. D(C 230,C 232,H 224,H  42)   -166.14 -0.000184    0.05   -166.09   
  1142. D(O 220,C 232,H 224,H  56)    -25.00  0.000261   -0.09    -25.09   
  1143. D(O 220,C 232,H 224,H  42)    -48.93  0.000219   -0.01    -48.95   
  1144. D(C 230,C 232,O 220,C 229)     -8.15 -0.000002   -0.58     -8.72   
  1145. D(H 224,C 232,O 220,H  56)     21.82 -0.000034   -0.28     21.54   
  1146. D(H 224,C 232,O 220,C 229)   -124.66 -0.000217   -0.49   -125.14   
  1147. D(H 224,C 232,H  56,N  55)     30.74  0.000657   -1.05     29.69   
  1148. D(O 220,C 232,H  56,H 212)     55.61  0.000113   -0.89     54.71   
  1149. D(H 224,C 232,C 230,O 226)    -21.88 -0.000231    0.39    -21.49   
  1150. D(O 220,C 232,H  56,N  55)   -175.42  0.000933   -0.98   -176.40   
  1151. D(H 119,H 233,C 232,H 224)    -25.09 -0.000384    0.58    -24.51   
  1152. D(H 119,H 233,C 232,O 220)     96.71 -0.000166    0.56     97.27   
  1153. D(C 232,H 233,H 119,H 224)     16.96  0.000247   -0.28     16.68   
  1154. D(C 232,H 233,H 119,C  57)    -14.48  0.000335   -0.36    -14.84   
  1155. D(C 244,N 243,C 193,C 194)   -142.09 -0.000311   -0.14   -142.23   
  1156. D(C 244,N 243,C 193,H 192)     99.95  0.000079   -0.20     99.74   
  1157. D(H 240,C 244,N 243,C 193)      3.54  0.000028    0.03      3.57   
  1158. D(C 239,C 244,N 243,C 193)   -174.99  0.000121    0.14   -174.85   
  1159. D(N 243,C 244,C 239,H 237)     -1.79 -0.000068    0.00     -1.79   
  1160. D(H 240,C 244,C 239,H 238)     58.51  0.000035    0.09     58.60   
  1161. D(H 240,C 244,C 239,H 237)    179.57  0.000017    0.10    179.67   
  1162. D(C 259,O 245,H 115,C 112)   -177.31 -0.000355    0.95   -176.36   
  1163. D(H 249,C 248,N 247,C 251)      0.74 -0.000054   -0.08      0.66   
  1164. D(C 246,C 248,N 247,C 251)   -178.10 -0.000048   -0.28   -178.39   
  1165. D(H 249,C 248,C 246,H 256)    -65.43 -0.000093   -0.05    -65.47   
  1166. D(N 247,C 248,C 246,H 257)   -128.61 -0.000078    0.08   -128.53   
  1167. D(N 247,C 248,C 246,H 256)    113.49 -0.000099    0.14    113.63   
  1168. D(H 252,C 251,N 247,C 248)      2.60 -0.000079    0.05      2.65   
  1169. D(H 250,C 251,N 247,C 248)   -116.66  0.000055    0.08   -116.58   
  1170. D(C 255,C 253,C 251,N 247)   -174.56 -0.000186    0.16   -174.41   
  1171. D(H 254,C 253,C 251,H 250)   -171.75 -0.000073    0.05   -171.70   
  1172. D(H 254,C 253,C 251,N 247)    -54.44 -0.000040    0.08    -54.36   
  1173. D(H 260,C 255,C 253,C 251)     52.04 -0.000049   -0.04     52.00   
  1174. D(C 259,C 255,C 253,H 254)    172.45 -0.000104    0.05    172.50   
  1175. D(C 259,C 255,C 253,C 251)    -67.26 -0.000084   -0.00    -67.27   
  1176. D(H 101,H 257,C 246,H 256)   -118.65 -0.000855    1.29   -117.37   
  1177. D(H 101,H 257,C 246,C 248)    122.56 -0.000932    1.32    123.88   
  1178. D(C 246,H 257,H 101,C 100)   -130.44 -0.000364    1.75   -128.69   
  1179. D(O 261,C 259,C 255,C 253)   -131.17 -0.000063   -0.65   -131.81   
  1180. D(O 245,C 259,C 255,H 260)    -70.62 -0.000021   -0.36    -70.99   
  1181. D(O 245,C 259,C 255,C 253)     49.67 -0.000029   -0.41     49.26   
  1182. D(O 261,C 259,O 245,H 115)     89.74 -0.000736    1.60     91.34   
  1183. D(C 255,C 259,O 245,H 115)    -91.19 -0.000771    1.34    -89.85   
  1184. D(C 215,O 261,C 259,C 255)   -179.39 -0.000207    0.35   -179.05   
  1185. D(C 215,O 261,C 259,O 245)     -0.21 -0.000241    0.12     -0.09   
  1186. D(C 259,O 261,C 215,C 213)    167.15 -0.000200    0.04    167.19   
  1187. D(C 259,O 261,C 215,H 210)     43.92 -0.000491    0.25     44.17   
    ----------------------------------------------------------------------------

Time needed for optimization step       :     2.98 sec




    ----------------------------------------------------------------------------
                                  WARNING !!!
       The optimization did not converge but reached the maximum number of
       optimization cycles.
       Please check your results very carefully.
    ----------------------------------------------------------------------------



Timings for individual modules:

Sum of individual times         ...      756.434 sec (=  12.607 min)
Geometry relaxation             ...      646.215 sec (=  10.770 min)  85.4 %
XTB module                      ...      110.219 sec (=   1.837 min)  14.6 %
                             ****ORCA TERMINATED NORMALLY****
TOTAL RUN TIME: 0 days 0 hours 19 minutes 19 seconds 301 msec