
                                 *****************
                                 * O   R   C   A *
                                 *****************

                                            #,                                       
                                            ###                                      
                                            ####                                     
                                            #####                                    
                                            ######                                   
                                           ########,                                 
                                     ,,################,,,,,                         
                               ,,#################################,,                 
                          ,,##########################################,,             
                       ,#########################################, ''#####,          
                    ,#############################################,,   '####,        
                  ,##################################################,,,,####,       
                ,###########''''           ''''###############################       
              ,#####''   ,,,,##########,,,,          '''####'''          '####       
            ,##' ,,,,###########################,,,                        '##       
           ' ,,###''''                  '''############,,,                           
         ,,##''                                '''############,,,,        ,,,,,,###''
      ,#''                                            '''#######################'''  
     '                                                          ''''####''''         
             ,#######,   #######,   ,#######,      ##                                
            ,#'     '#,  ##    ##  ,#'     '#,    #''#        ######   ,####,        
            ##       ##  ##   ,#'  ##            #'  '#       #        #'  '#        
            ##       ##  #######   ##           ,######,      #####,   #    #        
            '#,     ,#'  ##    ##  '#,     ,#' ,#      #,         ##   #,  ,#        
             '#######'   ##     ##  '#######'  #'      '#     #####' # '####'        



                  #######################################################
                  #                        -***-                        #
                  #          Department of theory and spectroscopy      #
                  #    Directorship and core code : Frank Neese         #
                  #        Max Planck Institute fuer Kohlenforschung    #
                  #                Kaiser Wilhelm Platz 1               #
                  #                 D-45470 Muelheim/Ruhr               #
                  #                      Germany                        #
                  #                                                     #
                  #                  All rights reserved                #
                  #                        -***-                        #
                  #######################################################


                         Program Version 5.0.3 -  RELEASE  -


 With contributions from (in alphabetic order):
   Daniel Aravena         : Magnetic Suceptibility
   Michael Atanasov       : Ab Initio Ligand Field Theory (pilot matlab implementation)
   Alexander A. Auer      : GIAO ZORA, VPT2 properties, NMR spectrum
   Ute Becker             : Parallelization
   Giovanni Bistoni       : ED, misc. LED, open-shell LED, HFLD
   Martin Brehm           : Molecular dynamics
   Dmytro Bykov           : SCF Hessian
   Vijay G. Chilkuri      : MRCI spin determinant printing, contributions to CSF-ICE
   Dipayan Datta          : RHF DLPNO-CCSD density
   Achintya Kumar Dutta   : EOM-CC, STEOM-CC
   Dmitry Ganyushin       : Spin-Orbit,Spin-Spin,Magnetic field MRCI
   Miquel Garcia          : C-PCM and meta-GGA Hessian, CC/C-PCM, Gaussian charge scheme
   Yang Guo               : DLPNO-NEVPT2, F12-NEVPT2, CIM, IAO-localization
   Andreas Hansen         : Spin unrestricted coupled pair/coupled cluster methods
   Benjamin Helmich-Paris : MC-RPA, TRAH-SCF, COSX integrals
   Lee Huntington         : MR-EOM, pCC
   Robert Izsak           : Overlap fitted RIJCOSX, COSX-SCS-MP3, EOM
   Marcus Kettner         : VPT2
   Christian Kollmar      : KDIIS, OOCD, Brueckner-CCSD(T), CCSD density, CASPT2, CASPT2-K
   Simone Kossmann        : Meta GGA functionals, TD-DFT gradient, OOMP2, MP2 Hessian
   Martin Krupicka        : Initial AUTO-CI
   Lucas Lang             : DCDCAS
   Marvin Lechner         : AUTO-CI (C++ implementation), FIC-MRCC
   Dagmar Lenk            : GEPOL surface, SMD
   Dimitrios Liakos       : Extrapolation schemes; Compound Job, initial MDCI parallelization
   Dimitrios Manganas     : Further ROCIS development; embedding schemes
   Dimitrios Pantazis     : SARC Basis sets
   Anastasios Papadopoulos: AUTO-CI, single reference methods and gradients
   Taras Petrenko         : DFT Hessian,TD-DFT gradient, ASA, ECA, R-Raman, ABS, FL, XAS/XES, NRVS
   Peter Pinski           : DLPNO-MP2, DLPNO-MP2 Gradient
   Christoph Reimann      : Effective Core Potentials
   Marius Retegan         : Local ZFS, SOC
   Christoph Riplinger    : Optimizer, TS searches, QM/MM, DLPNO-CCSD(T), (RO)-DLPNO pert. Triples
   Tobias Risthaus        : Range-separated hybrids, TD-DFT gradient, RPA, STAB
   Michael Roemelt        : Original ROCIS implementation
   Masaaki Saitow         : Open-shell DLPNO-CCSD energy and density
   Barbara Sandhoefer     : DKH picture change effects
   Avijit Sen             : IP-ROCIS
   Kantharuban Sivalingam : CASSCF convergence, NEVPT2, FIC-MRCI
   Bernardo de Souza      : ESD, SOC TD-DFT
   Georgi Stoychev        : AutoAux, RI-MP2 NMR, DLPNO-MP2 response
   Willem Van den Heuvel  : Paramagnetic NMR
   Boris Wezisla          : Elementary symmetry handling
   Frank Wennmohs         : Technical directorship


 We gratefully acknowledge several colleagues who have allowed us to
 interface, adapt or use parts of their codes:
   Stefan Grimme, W. Hujo, H. Kruse, P. Pracht,  : VdW corrections, initial TS optimization,
                  C. Bannwarth, S. Ehlert          DFT functionals, gCP, sTDA/sTD-DF
   Ed Valeev, F. Pavosevic, A. Kumar             : LibInt (2-el integral package), F12 methods
   Garnet Chan, S. Sharma, J. Yang, R. Olivares  : DMRG
   Ulf Ekstrom                                   : XCFun DFT Library
   Mihaly Kallay                                 : mrcc  (arbitrary order and MRCC methods)
   Jiri Pittner, Ondrej Demel                    : Mk-CCSD
   Frank Weinhold                                : gennbo (NPA and NBO analysis)
   Christopher J. Cramer and Donald G. Truhlar   : smd solvation model
   Lars Goerigk                                  : TD-DFT with DH, B97 family of functionals
   V. Asgeirsson, H. Jonsson                     : NEB implementation
   FAccTs GmbH                                   : IRC, NEB, NEB-TS, DLPNO-Multilevel, CI-OPT
                                                   MM, QMMM, 2- and 3-layer-ONIOM, Crystal-QMMM,
                                                   LR-CPCM, SF, NACMEs, symmetry and pop. for TD-DFT,
                                                   nearIR, NL-DFT gradient (VV10), updates on ESD,
                                                   ML-optimized integration grids
   S Lehtola, MJT Oliveira, MAL Marques          : LibXC Library
   Liviu Ungur et al                             : ANISO software


 Your calculation uses the libint2 library for the computation of 2-el integrals
 For citations please refer to: http://libint.valeyev.net

 Your ORCA version has been built with support for libXC version: 5.1.0
 For citations please refer to: https://tddft.org/programs/libxc/

 This ORCA versions uses:
   CBLAS   interface :  Fast vector & matrix operations
   LAPACKE interface :  Fast linear algebra routines
   SCALAPACK package :  Parallel linear algebra routines
   Shared memory     :  Shared parallel matrices
   BLAS/LAPACK       :  OpenBLAS 0.3.19 NO_AFFINITY VORTEX SINGLE_THREADED
        Core in use  :  VORTEX
   Copyright (c) 2011-2014, The OpenBLAS Project


Your calculation utilizes the atom-pairwise dispersion correction
with the Becke-Johnson damping scheme (D3BJ)
Cite in your paper:
S.Grimme, S.Ehrlich, L.Goerigk, J Comput Chem, (2011), 32, 1456–1465 
S.Grimme, J.Antony, S.Ehrlich and H.Krieg, J.Chem.Phys., 132, (2010), 154104 
   

================================================================================

----- Orbital basis set information -----
Your calculation utilizes the basis: def2-TZVP
   F. Weigend and R. Ahlrichs, Phys. Chem. Chem. Phys. 7, 3297 (2005).

----- AuxJ basis set information -----
Your calculation utilizes the auxiliary basis: def2/J
   F. Weigend, Phys. Chem. Chem. Phys. 8, 1057 (2006).

================================================================================
                                        WARNINGS
                       Please study these warnings very carefully!
================================================================================


WARNING: Geometry Optimization
  ===> : Switching off AutoStart
         For restart on a previous wavefunction, please use MOREAD

INFO   : the flag for use of the SHARK integral package has been found!

================================================================================
                                       INPUT FILE
================================================================================
NAME = /Users/cxs454/Desktop/DecomPoly/S-S_Curve/BOPh_2.inp
|  1> ! B3LYP def2-TZVP D3BJ OPT FREQ def2/J 
|  2> %geom
|  3> POTENTIALS
|  4> {C 0 6 2}
|  5> end
|  6> end
|  7>  
|  8> *xyz 0 1 
|  9> B   -3.73161276541301 0.61272794166388 1.73512090643947
| 10> O   -3.76158949679348 -0.76393172335379 1.6659260224516
| 11> O   -3.07455434198306 1.21257625389826 2.7882072138406
| 12> B   -2.45917304323662 0.46128181729643 3.77003785250529
| 13> O   -2.50360938460314 -0.91542129894381 3.67563330951786
| 14> B   -3.15277747132341 -1.54250304045535 2.63051998253327
| 15> C   -4.4397523277209 1.48617068373058 0.6326637542522
| 16> C   -4.41081299184921 2.8844149561822 0.69852347614725
| 17> H   -3.89167788148758 3.36353985177051 1.51909510527527
| 18> C   -5.03665932007661 3.65685905482476 -0.27054108955164
| 19> H   -5.00663507939457 4.73745072702156 -0.2075931337136
| 20> C   -5.70407934247942 3.03963331124664 -1.32405206339478
| 21> H   -6.19328389451829 3.64058033692891 -2.08069027295107
| 22> C   -5.74380239636908 1.65113666554109 -1.40601170918112
| 23> H   -6.26375361774546 1.17192513373836 -2.22606108916202
| 24> C   -5.11596225880107 0.88318769722148 -0.43462051703085
| 25> H   -5.14624559148939 -0.19735780360007 -0.49695055469947
| 26> C   -3.20338216855486 -3.08708694095247 2.53945843561744
| 27> C   -2.58970254893542 -3.88708865982197 3.51195349684897
| 28> H   -2.07240688460153 -3.41151183762551 4.33566437099499
| 29> C   -2.63782171485267 -5.27204637595241 3.43200744266737
| 30> H   -2.15905171271055 -5.87758057254489 4.19127035753529
| 31> C   -3.30334993772346 -5.88214364960006 2.37319989468067
| 32> H   -3.34206324097191 -6.96255372930925 2.30893958810208
| 33> C   -3.91929464205916 -5.10553276574683 1.3967472446277
| 34> H   -4.43697584596484 -5.58133896410776 0.57331283311566
| 35> C   -3.86843505611876 -3.7210673252443 1.48153298409222
| 36> H   -4.34787803738266 -3.11571612317604 0.72263492118144
| 37> C   -1.73923069023442 1.15176710035441 4.95380863355163
| 38> C   -1.69519329585558 2.54881973695931 5.04999279983694
| 39> H   -2.17092373469699 3.14484624086082 4.28147263472497
| 40> C   -1.05422582215724 3.17205175412588 6.1117545389206
| 41> H   -1.02872764609184 4.25279706238059 6.17299669685873
| 42> C   -0.44429177530269 2.40479964595003 7.09931367632277
| 43> H   0.05586217071759 2.88915349265502 7.92885176558145
| 44> C   -0.47674637441884 1.01581976604718 7.02234498208818
| 45> H   -0.00202578400983 0.41971754556018 7.79158510468813
| 46> C   -1.11887733183511 0.39756457514692 5.95831291446687
| 47> H   -1.14519672095481 -0.68315054067047 5.89780749021754
| 48> *
| 49> 
| 50>                          ****END OF INPUT****
================================================================================

                       *****************************
                       * Geometry Optimization Run *
                       *****************************

Geometry optimization settings:
Update method            Update   .... BFGS
Choice of coordinates    CoordSys .... Z-matrix Internals
Initial Hessian          InHess   .... Almoef's Model

Convergence Tolerances:
Energy Change            TolE     ....  5.0000e-06 Eh
Max. Gradient            TolMAXG  ....  3.0000e-04 Eh/bohr
RMS Gradient             TolRMSG  ....  1.0000e-04 Eh/bohr
Max. Displacement        TolMAXD  ....  4.0000e-03 bohr
RMS Displacement         TolRMSD  ....  2.0000e-03 bohr
Strict Convergence                ....  False
------------------------------------------------------------------------------
                        ORCA OPTIMIZATION COORDINATE SETUP
------------------------------------------------------------------------------

The optimization will be done in new redundant internal coordinates
Making redundant internal coordinates   ...  (new redundants) done
Evaluating the initial hessian          ...  (Almloef) done
Evaluating the coordinates              ...  done
Calculating the B-matrix                .... done
Calculating the G-matrix                .... done
Diagonalizing the G-matrix              .... done
Small eigenvalue found = 2.934e-03
Small eigenvalue found = 2.954e-03
Small eigenvalue found = 2.291e-02
Small eigenvalue found = 2.373e-02
Small eigenvalue found = 2.383e-02
Small eigenvalue found = 2.401e-02
The first mode is                       ....   93
The number of degrees of freedom        ....  111

    -----------------------------------------------------------------
                    Redundant Internal Coordinates


    -----------------------------------------------------------------
         Definition                    Initial Value    Approx d2E/dq
    -----------------------------------------------------------------
      1. B(O   1,B   0)                  1.3787         0.675591   
      2. B(O   2,B   0)                  1.3786         0.675901   
      3. B(B   3,O   2)                  1.3810         0.669993   
      4. B(O   4,B   3)                  1.3807         0.670823   
      5. B(B   5,O   4)                  1.3809         0.670186   
      6. B(B   5,O   1)                  1.3810         0.669870   
      7. B(C   6,B   0)                  1.5747         0.367139   
      8. B(C   7,C   6)                  1.4001         0.602053   
      9. B(H   8,C   7)                  1.0828         0.369787   
     10. B(C   9,C   7)                  1.3883         0.628658   
     11. B(H  10,C   9)                  1.0828         0.369698   
     12. B(C  11,C   9)                  1.3915         0.621338   
     13. B(H  12,C  11)                  1.0830         0.369436   
     14. B(C  13,C  11)                  1.3915         0.621407   
     15. B(H  14,C  13)                  1.0828         0.369740   
     16. B(C  15,C  13)                  1.3884         0.628584   
     17. B(C  15,C   6)                  1.4000         0.602304   
     18. B(H  16,C  15)                  1.0828         0.369799   
     19. B(C  17,B   5)                  1.5481         0.404882   
     20. B(C  18,C  17)                  1.4008         0.600405   
     21. B(H  19,C  18)                  1.0827         0.369870   
     22. B(C  20,C  18)                  1.3881         0.629178   
     23. B(H  21,C  20)                  1.0828         0.369804   
     24. B(C  22,C  20)                  1.3915         0.621406   
     25. B(H  23,C  22)                  1.0830         0.369465   
     26. B(C  24,C  22)                  1.3914         0.621609   
     27. B(H  25,C  24)                  1.0828         0.369768   
     28. B(C  26,C  24)                  1.3880         0.629424   
     29. B(C  26,C  17)                  1.4012         0.599555   
     30. B(H  27,C  26)                  1.0827         0.369886   
     31. B(C  28,B   3)                  1.5480         0.404974   
     32. B(C  29,C  28)                  1.4011         0.599937   
     33. B(H  30,C  29)                  1.0827         0.369918   
     34. B(C  31,C  29)                  1.3880         0.629361   
     35. B(H  32,C  31)                  1.0828         0.369780   
     36. B(C  33,C  31)                  1.3914         0.621612   
     37. B(H  34,C  33)                  1.0830         0.369482   
     38. B(C  35,C  33)                  1.3915         0.621387   
     39. B(H  36,C  35)                  1.0828         0.369769   
     40. B(C  37,C  35)                  1.3881         0.629244   
     41. B(C  37,C  28)                  1.4010         0.600140   
     42. B(H  38,C  37)                  1.0827         0.369850   
     43. A(O   1,B   0,O   2)          118.8922         0.449736   
     44. A(O   1,B   0,C   6)          120.5918         0.405734   
     45. A(O   2,B   0,C   6)          120.5157         0.405767   
     46. A(B   0,O   1,B   5)          121.2166         0.449005   
     47. A(B   0,O   2,B   3)          121.2491         0.449057   
     48. A(O   2,B   3,C  28)          120.5473         0.412235   
     49. A(O   2,B   3,O   4)          118.6538         0.448443   
     50. A(O   4,B   3,C  28)          120.7985         0.412326   
     51. A(B   3,O   4,B   5)          121.3114         0.448467   
     52. A(O   1,B   5,O   4)          118.6751         0.448351   
     53. A(O   1,B   5,C  17)          120.4632         0.412205   
     54. A(O   4,B   5,C  17)          120.8614         0.412239   
     55. A(C   7,C   6,C  15)          118.4234         0.429540   
     56. A(B   0,C   6,C  15)          120.7991         0.396771   
     57. A(B   0,C   6,C   7)          120.7773         0.396742   
     58. A(H   8,C   7,C   9)          119.9282         0.355334   
     59. A(C   6,C   7,C   9)          120.8972         0.432857   
     60. A(C   6,C   7,H   8)          119.1745         0.352740   
     61. A(C   7,C   9,C  11)          119.8603         0.435320   
     62. A(H  10,C   9,C  11)          119.9970         0.354614   
     63. A(C   7,C   9,H  10)          120.1427         0.355319   
     64. A(H  12,C  11,C  13)          119.9762         0.354578   
     65. A(C   9,C  11,C  13)          120.0596         0.434412   
     66. A(C   9,C  11,H  12)          119.9643         0.354572   
     67. A(H  14,C  13,C  15)          120.1481         0.355319   
     68. A(C  11,C  13,C  15)          119.8565         0.435319   
     69. A(C  11,C  13,H  14)          119.9954         0.354628   
     70. A(C  13,C  15,H  16)          119.9390         0.355329   
     71. A(C   6,C  15,H  16)          119.1580         0.352767   
     72. A(C   6,C  15,C  13)          120.9030         0.432880   
     73. A(B   5,C  17,C  18)          120.9732         0.403439   
     74. A(C  18,C  17,C  26)          118.2731         0.428977   
     75. A(B   5,C  17,C  26)          120.7536         0.403338   
     76. A(C  17,C  18,C  20)          120.9725         0.432708   
     77. A(C  17,C  18,H  19)          119.1181         0.352590   
     78. A(H  19,C  18,C  20)          119.9095         0.355397   
     79. A(H  21,C  20,C  22)          119.9909         0.354638   
     80. A(C  18,C  20,C  22)          119.8588         0.435393   
     81. A(C  18,C  20,H  21)          120.1503         0.355387   
     82. A(H  23,C  22,C  24)          119.9569         0.354603   
     83. A(C  20,C  22,C  24)          120.0666         0.434446   
     84. A(C  20,C  22,H  23)          119.9765         0.354583   
     85. A(H  25,C  24,C  26)          120.1512         0.355404   
     86. A(C  22,C  24,C  26)          119.8444         0.435449   
     87. A(C  22,C  24,H  25)          120.0044         0.354652   
     88. A(C  24,C  26,H  27)          119.9107         0.355424   
     89. A(C  17,C  26,H  27)          119.1047         0.352508   
     90. A(C  17,C  26,C  24)          120.9847         0.432628   
     91. A(C  29,C  28,C  37)          118.2727         0.428992   
     92. A(B   3,C  28,C  37)          120.9377         0.403423   
     93. A(B   3,C  28,C  29)          120.7893         0.403399   
     94. A(H  30,C  29,C  31)          119.9147         0.355423   
     95. A(C  28,C  29,C  31)          120.9812         0.432670   
     96. A(C  28,C  29,H  30)          119.1041         0.352551   
     97. A(H  32,C  31,C  33)          119.9950         0.354654   
     98. A(C  29,C  31,C  33)          119.8523         0.435442   
     99. A(C  29,C  31,H  32)          120.1526         0.355400   
    100. A(H  34,C  33,C  35)          119.9714         0.354584   
    101. A(C  31,C  33,C  35)          120.0629         0.434444   
    102. A(C  31,C  33,H  34)          119.9658         0.354606   
    103. A(H  36,C  35,C  37)          120.1451         0.355387   
    104. A(C  33,C  35,C  37)          119.8542         0.435399   
    105. A(C  33,C  35,H  36)          120.0007         0.354631   
    106. A(C  35,C  37,H  38)          119.9115         0.355400   
    107. A(C  28,C  37,H  38)          119.1117         0.352560   
    108. A(C  28,C  37,C  35)          120.9768         0.432682   
    109. D(B   5,O   1,B   0,O   2)      0.2520         0.027485   
    110. D(B   5,O   1,B   0,C   6)   -179.5527         0.027485   
    111. D(B   3,O   2,B   0,C   6)    179.3880         0.027512   
    112. D(B   3,O   2,B   0,O   1)     -0.4169         0.027512   
    113. D(O   4,B   3,O   2,B   0)      0.4675         0.027002   
    114. D(C  28,B   3,O   2,B   0)   -179.3214         0.027002   
    115. D(B   5,O   4,B   3,O   2)     -0.3564         0.027074   
    116. D(B   5,O   4,B   3,C  28)    179.4319         0.027074   
    117. D(C  17,B   5,O   4,B   3)   -179.6322         0.027019   
    118. D(O   4,B   5,O   1,B   0)     -0.1443         0.026992   
    119. D(O   1,B   5,O   4,B   3)      0.1981         0.027019   
    120. D(C  17,B   5,O   1,B   0)    179.6866         0.026992   
    121. D(C  15,C   6,B   0,O   1)      0.2134         0.007917   
    122. D(C   7,C   6,B   0,O   1)   -179.9479         0.007917   
    123. D(C   7,C   6,B   0,O   2)      0.2506         0.007917   
    124. D(C  15,C   6,B   0,O   2)   -179.5881         0.007917   
    125. D(C   9,C   7,C   6,C  15)     -0.0217         0.024997   
    126. D(C   9,C   7,C   6,B   0)   -179.8642         0.024997   
    127. D(H   8,C   7,C   6,C  15)    179.9685         0.024997   
    128. D(H   8,C   7,C   6,B   0)      0.1260         0.024997   
    129. D(C  11,C   9,C   7,H   8)   -179.9626         0.027395   
    130. D(C  11,C   9,C   7,C   6)      0.0276         0.027395   
    131. D(H  10,C   9,C   7,H   8)      0.0082         0.027395   
    132. D(H  10,C   9,C   7,C   6)    179.9983         0.027395   
    133. D(C  13,C  11,C   9,H  10)   -179.9817         0.026721   
    134. D(C  13,C  11,C   9,C   7)     -0.0109         0.026721   
    135. D(H  12,C  11,C   9,H  10)      0.0000         0.026721   
    136. D(H  12,C  11,C   9,C   7)    179.9708         0.026721   
    137. D(C  15,C  13,C  11,C   9)     -0.0111         0.026728   
    138. D(H  14,C  13,C  11,H  12)     -0.0035         0.026728   
    139. D(H  14,C  13,C  11,C   9)    179.9782         0.026728   
    140. D(C  15,C  13,C  11,H  12)   -179.9928         0.026728   
    141. D(H  16,C  15,C  13,H  14)     -0.0046         0.027388   
    142. D(C   6,C  15,C  13,H  14)   -179.9725         0.027388   
    143. D(C   6,C  15,C  13,C  11)      0.0168         0.027388   
    144. D(H  16,C  15,C   6,C   7)   -179.9686         0.025019   
    145. D(H  16,C  15,C   6,B   0)     -0.1262         0.025019   
    146. D(H  16,C  15,C  13,C  11)    179.9846         0.027388   
    147. D(C  13,C  15,C   6,C   7)     -0.0006         0.025019   
    148. D(C  13,C  15,C   6,B   0)    179.8419         0.025019   
    149. D(C  26,C  17,B   5,O   4)    179.6801         0.009430   
    150. D(C  26,C  17,B   5,O   1)     -0.1471         0.009430   
    151. D(C  18,C  17,B   5,O   4)     -0.1654         0.009430   
    152. D(C  18,C  17,B   5,O   1)   -179.9926         0.009430   
    153. D(C  20,C  18,C  17,C  26)     -0.0047         0.024853   
    154. D(C  20,C  18,C  17,B   5)    179.8445         0.024853   
    155. D(H  19,C  18,C  17,C  26)   -179.9717         0.024853   
    156. D(H  19,C  18,C  17,B   5)     -0.1225         0.024853   
    157. D(C  22,C  20,C  18,H  19)    179.9763         0.027443   
    158. D(C  22,C  20,C  18,C  17)      0.0096         0.027443   
    159. D(H  21,C  20,C  18,H  19)     -0.0166         0.027443   
    160. D(H  21,C  20,C  18,C  17)   -179.9833         0.027443   
    161. D(C  24,C  22,C  20,H  21)    179.9910         0.026728   
    162. D(C  24,C  22,C  20,C  18)     -0.0020         0.026728   
    163. D(H  23,C  22,C  20,H  21)     -0.0079         0.026728   
    164. D(H  23,C  22,C  20,C  18)    179.9991         0.026728   
    165. D(C  26,C  24,C  22,H  23)    179.9885         0.026746   
    166. D(C  26,C  24,C  22,C  20)     -0.0104         0.026746   
    167. D(H  25,C  24,C  22,H  23)      0.0042         0.026746   
    168. D(H  25,C  24,C  22,C  20)   -179.9947         0.026746   
    169. D(H  27,C  26,C  17,B   5)      0.1206         0.024779   
    170. D(C  24,C  26,C  17,C  18)     -0.0078         0.024779   
    171. D(C  24,C  26,C  17,B   5)   -179.8574         0.024779   
    172. D(H  27,C  26,C  24,H  25)      0.0219         0.027466   
    173. D(H  27,C  26,C  24,C  22)   -179.9624         0.027466   
    174. D(C  17,C  26,C  24,H  25)    179.9997         0.027466   
    175. D(C  17,C  26,C  24,C  22)      0.0154         0.027466   
    176. D(H  27,C  26,C  17,C  18)    179.9701         0.024779   
    177. D(C  37,C  28,B   3,O   4)     -0.1513         0.009434   
    178. D(C  37,C  28,B   3,O   2)    179.6331         0.009434   
    179. D(C  29,C  28,B   3,O   4)   -179.9476         0.009434   
    180. D(C  29,C  28,B   3,O   2)     -0.1633         0.009434   
    181. D(C  31,C  29,C  28,C  37)      0.0044         0.024812   
    182. D(C  31,C  29,C  28,B   3)    179.8060         0.024812   
    183. D(H  30,C  29,C  28,C  37)   -179.9527         0.024812   
    184. D(H  30,C  29,C  28,B   3)     -0.1510         0.024812   
    185. D(C  33,C  31,C  29,H  30)    179.9432         0.027460   
    186. D(C  33,C  31,C  29,C  28)     -0.0135         0.027460   
    187. D(H  32,C  31,C  29,H  30)     -0.0151         0.027460   
    188. D(H  32,C  31,C  29,C  28)   -179.9718         0.027460   
    189. D(C  35,C  33,C  31,H  32)    179.9698         0.026746   
    190. D(C  35,C  33,C  31,C  29)      0.0114         0.026746   
    191. D(H  34,C  33,C  31,H  32)     -0.0077         0.026746   
    192. D(H  34,C  33,C  31,C  29)   -179.9661         0.026746   
    193. D(C  37,C  35,C  33,H  34)    179.9772         0.026726   
    194. D(C  37,C  35,C  33,C  31)     -0.0003         0.026726   
    195. D(H  36,C  35,C  33,H  34)     -0.0037         0.026726   
    196. D(H  36,C  35,C  33,C  31)   -179.9812         0.026726   
    197. D(H  38,C  37,C  35,H  36)      0.0169         0.027449   
    198. D(H  38,C  37,C  35,C  33)   -179.9640         0.027449   
    199. D(C  28,C  37,C  35,H  36)    179.9720         0.027449   
    200. D(C  28,C  37,C  35,C  33)     -0.0089         0.027449   
    201. D(H  38,C  37,C  28,C  29)    179.9623         0.024830   
    202. D(H  38,C  37,C  28,B   3)      0.1610         0.024830   
    203. D(C  35,C  37,C  28,C  29)      0.0069         0.024830   
    204. D(C  35,C  37,C  28,B   3)   -179.7945         0.024830   
    -----------------------------------------------------------------

Number of atoms                         .... 39
Number of degrees of freedom            .... 204

         *************************************************************
         *                GEOMETRY OPTIMIZATION CYCLE   1            *
         *************************************************************
---------------------------------
CARTESIAN COORDINATES (ANGSTROEM)
---------------------------------
  B     -3.731613    0.612728    1.735121
  O     -3.761589   -0.763932    1.665926
  O     -3.074554    1.212576    2.788207
  B     -2.459173    0.461282    3.770038
  O     -2.503609   -0.915421    3.675633
  B     -3.152777   -1.542503    2.630520
  C     -4.439752    1.486171    0.632664
  C     -4.410813    2.884415    0.698523
  H     -3.891678    3.363540    1.519095
  C     -5.036659    3.656859   -0.270541
  H     -5.006635    4.737451   -0.207593
  C     -5.704079    3.039633   -1.324052
  H     -6.193284    3.640580   -2.080690
  C     -5.743802    1.651137   -1.406012
  H     -6.263754    1.171925   -2.226061
  C     -5.115962    0.883188   -0.434621
  H     -5.146246   -0.197358   -0.496951
  C     -3.203382   -3.087087    2.539458
  C     -2.589703   -3.887089    3.511953
  H     -2.072407   -3.411512    4.335664
  C     -2.637822   -5.272046    3.432007
  H     -2.159052   -5.877581    4.191270
  C     -3.303350   -5.882144    2.373200
  H     -3.342063   -6.962554    2.308940
  C     -3.919295   -5.105533    1.396747
  H     -4.436976   -5.581339    0.573313
  C     -3.868435   -3.721067    1.481533
  H     -4.347878   -3.115716    0.722635
  C     -1.739231    1.151767    4.953809
  C     -1.695193    2.548820    5.049993
  H     -2.170924    3.144846    4.281473
  C     -1.054226    3.172052    6.111755
  H     -1.028728    4.252797    6.172997
  C     -0.444292    2.404800    7.099314
  H      0.055862    2.889153    7.928852
  C     -0.476746    1.015820    7.022345
  H     -0.002026    0.419718    7.791585
  C     -1.118877    0.397565    5.958313
  H     -1.145197   -0.683151    5.897807

----------------------------
CARTESIAN COORDINATES (A.U.)
----------------------------
  NO LB      ZA    FRAG     MASS         X           Y           Z
   0 B     5.0000    0    10.810   -7.051726    1.157888    3.278903
   1 O     8.0000    0    15.999   -7.108374   -1.443622    3.148144
   2 O     8.0000    0    15.999   -5.810066    2.291437    5.268948
   3 B     5.0000    0    10.810   -4.647164    0.871696    7.124339
   4 O     8.0000    0    15.999   -4.731136   -1.729896    6.945940
   5 B     5.0000    0    10.810   -5.957886   -2.914908    4.970962
   6 C     6.0000    0    12.011   -8.389916    2.808456    1.195561
   7 C     6.0000    0    12.011   -8.335229    5.450754    1.320018
   8 H     1.0000    0     1.008   -7.354205    6.356169    2.870674
   9 C     6.0000    0    12.011   -9.517907    6.910462   -0.511249
  10 H     1.0000    0     1.008   -9.461169    8.952484   -0.392294
  11 C     6.0000    0    12.011  -10.779148    5.744075   -2.502096
  12 H     1.0000    0     1.008  -11.703610    6.879700   -3.931935
  13 C     6.0000    0    12.011  -10.854213    3.120196   -2.656977
  14 H     1.0000    0     1.008  -11.836779    2.214618   -4.206646
  15 C     6.0000    0    12.011   -9.667768    1.668983   -0.821314
  16 H     1.0000    0     1.008   -9.724995   -0.372952   -0.939100
  17 C     6.0000    0    12.011   -6.053515   -5.833749    4.798881
  18 C     6.0000    0    12.011   -4.893829   -7.345533    6.636630
  19 H     1.0000    0     1.008   -3.916281   -6.446823    8.193218
  20 C     6.0000    0    12.011   -4.984761   -9.962724    6.485554
  21 H     1.0000    0     1.008   -4.080016  -11.107018    7.920353
  22 C     6.0000    0    12.011   -6.242427  -11.115641    4.484698
  23 H     1.0000    0     1.008   -6.315584  -13.157320    4.363263
  24 C     6.0000    0    12.011   -7.406394   -9.648059    2.639470
  25 H     1.0000    0     1.008   -8.384669  -10.547202    1.083404
  26 C     6.0000    0    12.011   -7.310283   -7.031798    2.799692
  27 H     1.0000    0     1.008   -8.216299   -5.887850    1.365582
  28 C     6.0000    0    12.011   -3.286670    2.176524    9.361342
  29 C     6.0000    0    12.011   -3.203451    4.816571    9.543103
  30 H     1.0000    0     1.008   -4.102451    5.942898    8.090811
  31 C     6.0000    0    12.011   -1.992198    5.994309   11.549542
  32 H     1.0000    0     1.008   -1.944014    8.036622   11.665273
  33 C     6.0000    0    12.011   -0.839590    4.544413   13.415759
  34 H     1.0000    0     1.008    0.105564    5.459709   14.983358
  35 C     6.0000    0    12.011   -0.900920    1.919621   13.270309
  36 H     1.0000    0     1.008   -0.003828    0.793151   14.723962
  37 C     6.0000    0    12.011   -2.114372    0.751288   11.259580
  38 H     1.0000    0     1.008   -2.164108   -1.290967   11.145241

--------------------------------
INTERNAL COORDINATES (ANGSTROEM)
--------------------------------
 B      0   0   0     0.000000000000     0.00000000     0.00000000
 O      1   0   0     1.378723456564     0.00000000     0.00000000
 O      1   2   0     1.378598759729   118.89220765     0.00000000
 B      3   1   2     1.380988369370   121.24914355   359.58311380
 O      4   3   1     1.380651395696   118.65376727     0.46748453
 B      5   4   3     1.380910055577   121.31137923   359.64358284
 C      1   2   3     1.574730337481   120.59179842   180.19530767
 C      7   1   2     1.400093580291   120.77728289   180.05213899
 H      8   7   1     1.082774088586   119.17453341     0.12602762
 C      8   7   1     1.388322601047   120.89723881   180.13582285
 H     10   8   7     1.082839906077   120.14268650   179.99829834
 C     10   8   7     1.391510861204   119.86027537     0.02757623
 H     12  10   8     1.083032687213   119.96425967   179.97077795
 C     12  10   8     1.391480592636   120.05957539     0.00000000
 H     14  12  10     1.082808362745   119.99539836   179.97824767
 C     14  12  10     1.388355035454   119.85645451     0.00000000
 H     16  14  12     1.082765299213   119.93895555   179.98464916
 C      6   5   4     1.548093171093   120.86140322   180.36782981
 C     18   6   5     1.400839773083   120.97320425   359.83461108
 H     19  18   6     1.082713130213   119.11806087   359.87748223
 C     19  18   6     1.388097511408   120.97246881   179.84447917
 H     21  19  18     1.082761539808   120.15030081   180.01666416
 C     21  19  18     1.391481197294   119.85881759     0.00000000
 H     23  21  19     1.083011563737   119.97648129   179.99912474
 C     23  21  19     1.391392152311   120.06658274     0.00000000
 H     25  23  21     1.082787881969   120.00439832   180.00528563
 C     25  23  21     1.387991309427   119.84441693     0.00000000
 H     27  25  23     1.082701214564   119.91066450   180.03762322
 C      4   3   1     1.548031065523   120.54734340   180.67857838
 C     29   4   3     1.401052017376   120.78933536   359.83674405
 H     30  29   4     1.082677370216   119.10410808   359.84897188
 C     30  29   4     1.388018530187   120.98115629   179.80599058
 H     32  30  29     1.082779377439   120.15261574   180.02823348
 C     32  30  29     1.391390810980   119.85233241     0.00000000
 H     34  32  30     1.082998642690   119.96576653   180.03390634
 C     34  32  30     1.391489341558   120.06285080     0.00000000
 H     36  34  32     1.082787080845   120.00071905   180.01877072
 C     36  34  32     1.388069122369   119.85417428     0.00000000
 H     38  36  34     1.082727471788   119.91145346   180.03598961

---------------------------
INTERNAL COORDINATES (A.U.)
---------------------------
 B      0   0   0     0.000000000000     0.00000000     0.00000000
 O      1   0   0     2.605409747320     0.00000000     0.00000000
 O      1   2   0     2.605174104451   118.89220765     0.00000000
 B      3   1   2     2.609689812241   121.24914355   359.58311380
 O      4   3   1     2.609053024281   118.65376727     0.46748453
 B      5   4   3     2.609541820619   121.31137923   359.64358284
 C      1   2   3     2.975809072617   120.59179842   180.19530767
 C      7   1   2     2.645793428612   120.77728289   180.05213899
 H      8   7   1     2.046146492333   119.17453341     0.12602762
 C      8   7   1     2.623549501511   120.89723881   180.13582285
 H     10   8   7     2.046270869367   120.14268650   179.99829834
 C     10   8   7     2.629574440052   119.86027537     0.02757623
 H     12  10   8     2.046635172918   119.96425967   179.97077795
 C     12  10   8     2.629517240749   120.05957539     0.00000000
 H     14  12  10     2.046211261108   119.99539836   179.97824767
 C     14  12  10     2.623610793659   119.85645451     0.00000000
 H     16  14  12     2.046129882826   119.93895555   179.98464916
 C      6   5   4     2.925472123159   120.86140322   180.36782981
 C     18   6   5     2.647203528631   120.97320425   359.83461108
 H     19  18   6     2.046031297703   119.11806087   359.87748223
 C     19  18   6     2.623124143739   120.97246881   179.84447917
 H     21  19  18     2.046122778580   120.15030081   180.01666416
 C     21  19  18     2.629518383387   119.85881759     0.00000000
 H     23  21  19     2.046595255332   119.97648129   179.99912474
 C     23  21  19     2.629350112756   120.06658274     0.00000000
 H     25  23  21     2.046172558049   120.00439832   180.00528563
 C     25  23  21     2.622923451079   119.84441693     0.00000000
 H     27  25  23     2.046008780390   119.91066450   180.03762322
 C      4   3   1     2.925354760641   120.54734340   180.67857838
 C     29   4   3     2.647604612218   120.78933536   359.83674405
 H     30  29   4     2.045963721102   119.10410808   359.84897188
 C     30  29   4     2.622974890861   120.98115629   179.80599058
 H     32  30  29     2.046156486817   120.15261574   180.02823348
 C     32  30  29     2.629347578007   119.85233241     0.00000000
 H     34  32  30     2.046570838093   119.96576653   180.03390634
 C     34  32  30     2.629533773816   120.06285080     0.00000000
 H     36  34  32     2.046171044146   120.00071905   180.01877072
 C     36  34  32     2.623070496230   119.85417428     0.00000000
 H     38  36  34     2.046058399351   119.91145346   180.03598961

---------------------
BASIS SET INFORMATION
---------------------
There are 4 groups of distinct atoms

 Group   1 Type B   : 11s6p2d1f contracted to 5s3p2d1f pattern {62111/411/11/1}
 Group   2 Type O   : 11s6p2d1f contracted to 5s3p2d1f pattern {62111/411/11/1}
 Group   3 Type C   : 11s6p2d1f contracted to 5s3p2d1f pattern {62111/411/11/1}
 Group   4 Type H   : 5s1p contracted to 3s1p pattern {311/1}

Atom   0B    basis set group =>   1
Atom   1O    basis set group =>   2
Atom   2O    basis set group =>   2
Atom   3B    basis set group =>   1
Atom   4O    basis set group =>   2
Atom   5B    basis set group =>   1
Atom   6C    basis set group =>   3
Atom   7C    basis set group =>   3
Atom   8H    basis set group =>   4
Atom   9C    basis set group =>   3
Atom  10H    basis set group =>   4
Atom  11C    basis set group =>   3
Atom  12H    basis set group =>   4
Atom  13C    basis set group =>   3
Atom  14H    basis set group =>   4
Atom  15C    basis set group =>   3
Atom  16H    basis set group =>   4
Atom  17C    basis set group =>   3
Atom  18C    basis set group =>   3
Atom  19H    basis set group =>   4
Atom  20C    basis set group =>   3
Atom  21H    basis set group =>   4
Atom  22C    basis set group =>   3
Atom  23H    basis set group =>   4
Atom  24C    basis set group =>   3
Atom  25H    basis set group =>   4
Atom  26C    basis set group =>   3
Atom  27H    basis set group =>   4
Atom  28C    basis set group =>   3
Atom  29C    basis set group =>   3
Atom  30H    basis set group =>   4
Atom  31C    basis set group =>   3
Atom  32H    basis set group =>   4
Atom  33C    basis set group =>   3
Atom  34H    basis set group =>   4
Atom  35C    basis set group =>   3
Atom  36H    basis set group =>   4
Atom  37C    basis set group =>   3
Atom  38H    basis set group =>   4
---------------------------------
AUXILIARY/J BASIS SET INFORMATION
---------------------------------
There are 4 groups of distinct atoms

 Group   1 Type B   : 12s5p4d2f1g contracted to 6s4p3d1f1g pattern {711111/2111/211/2/1}
 Group   2 Type O   : 12s5p4d2f1g contracted to 6s4p3d1f1g pattern {711111/2111/211/2/1}
 Group   3 Type C   : 12s5p4d2f1g contracted to 6s4p3d1f1g pattern {711111/2111/211/2/1}
 Group   4 Type H   : 5s2p1d contracted to 3s1p1d pattern {311/2/1}

Atom   0B    basis set group =>   1
Atom   1O    basis set group =>   2
Atom   2O    basis set group =>   2
Atom   3B    basis set group =>   1
Atom   4O    basis set group =>   2
Atom   5B    basis set group =>   1
Atom   6C    basis set group =>   3
Atom   7C    basis set group =>   3
Atom   8H    basis set group =>   4
Atom   9C    basis set group =>   3
Atom  10H    basis set group =>   4
Atom  11C    basis set group =>   3
Atom  12H    basis set group =>   4
Atom  13C    basis set group =>   3
Atom  14H    basis set group =>   4
Atom  15C    basis set group =>   3
Atom  16H    basis set group =>   4
Atom  17C    basis set group =>   3
Atom  18C    basis set group =>   3
Atom  19H    basis set group =>   4
Atom  20C    basis set group =>   3
Atom  21H    basis set group =>   4
Atom  22C    basis set group =>   3
Atom  23H    basis set group =>   4
Atom  24C    basis set group =>   3
Atom  25H    basis set group =>   4
Atom  26C    basis set group =>   3
Atom  27H    basis set group =>   4
Atom  28C    basis set group =>   3
Atom  29C    basis set group =>   3
Atom  30H    basis set group =>   4
Atom  31C    basis set group =>   3
Atom  32H    basis set group =>   4
Atom  33C    basis set group =>   3
Atom  34H    basis set group =>   4
Atom  35C    basis set group =>   3
Atom  36H    basis set group =>   4
Atom  37C    basis set group =>   3
Atom  38H    basis set group =>   4
------------------------------------------------------------------------------
                           ORCA GTO INTEGRAL CALCULATION
                           -- RI-GTO INTEGRALS CHOSEN --
------------------------------------------------------------------------------
------------------------------------------------------------------------------
                   ___                                                        
                  /   \      - P O W E R E D   B Y -                         
                 /     \                                                     
                 |  |  |   _    _      __       _____    __    __             
                 |  |  |  | |  | |    /  \     |  _  \  |  |  /  |          
                  \  \/   | |  | |   /    \    | | | |  |  | /  /          
                 / \  \   | |__| |  /  /\  \   | |_| |  |  |/  /          
                |  |  |   |  __  | /  /__\  \  |    /   |      \           
                |  |  |   | |  | | |   __   |  |    \   |  |\   \          
                \     /   | |  | | |  |  |  |  | |\  \  |  | \   \       
                 \___/    |_|  |_| |__|  |__|  |_| \__\ |__|  \__/        
                                                                              
                      - O R C A' S   B I G   F R I E N D -                    
                                      &                                       
                       - I N T E G R A L  F E E D E R -                       
                                                                              
 v1 FN, 2020, v2 2021                                                         
------------------------------------------------------------------------------


Reading SHARK input file /Users/cxs454/Desktop/DecomPoly/S-S_Curve/BOPh_2.SHARKINP.tmp ... ok
----------------------
SHARK INTEGRAL PACKAGE
----------------------

Number of atoms                             ...     39
Number of basis functions                   ...    834
Number of shells                            ...    324
Maximum angular momentum                    ...      3
Integral batch strategy                     ... SHARK/LIBINT Hybrid
RI-J (if used) integral strategy            ... SPLIT-RIJ (Revised 2003 algorithm where possible)
Printlevel                                  ...      1
Contraction scheme used                     ... SEGMENTED contraction
Coulomb Range Separation                    ... NOT USED
Exchange Range Separation                   ... NOT USED
Finite Nucleus Model                        ... NOT USED
Auxiliary Coulomb fitting basis             ... AVAILABLE
   # of basis functions in Aux-J            ...   1341
   # of shells in Aux-J                     ...    435
   Maximum angular momentum in Aux-J        ...      4
Auxiliary J/K fitting basis                 ... NOT available
Auxiliary Correlation fitting basis         ... NOT available
Auxiliary 'external' fitting basis          ... NOT available
Integral threshold                          ...     2.500000e-11
Primitive cut-off                           ...     2.500000e-12
Primitive pair pre-selection threshold      ...     2.500000e-12

Calculating pre-screening integrals         ... done (  0.2 sec) Dimension = 324
Organizing shell pair data                  ... done (  0.1 sec)
Shell pair information
Total number of shell pairs                 ...     52650
Shell pairs after pre-screening             ...     33475
Total number of primitive shell pairs       ...    163308
Primitive shell pairs kept                  ...     68078
          la=0 lb=0:   8208 shell pairs
          la=1 lb=0:   9686 shell pairs
          la=1 lb=1:   2820 shell pairs
          la=2 lb=0:   4838 shell pairs
          la=2 lb=1:   2817 shell pairs
          la=2 lb=2:    715 shell pairs
          la=3 lb=0:   2258 shell pairs
          la=3 lb=1:   1335 shell pairs
          la=3 lb=2:    642 shell pairs
          la=3 lb=3:    156 shell pairs

Calculating one electron integrals          ... done (  0.1 sec)
Calculating RI/J V-Matrix + Cholesky decomp.... done (  0.1 sec)
Calculating Nuclear repulsion               ... done (  0.0 sec) ENN=   1719.871349189820 Eh

SHARK setup successfully completed in   0.7 seconds

Maximum memory used throughout the entire GTOINT-calculation: 438.2 MB
-------------------------------------------------------------------------------
                                 ORCA SCF
-------------------------------------------------------------------------------

------------
SCF SETTINGS
------------
Hamiltonian:
 Density Functional     Method          .... DFT(GTOs)
 Exchange Functional    Exchange        .... B88
   X-Alpha parameter    XAlpha          ....  0.666667
   Becke's b parameter  XBeta           ....  0.004200
 Correlation Functional Correlation     .... LYP
 LDA part of GGA corr.  LDAOpt          .... VWN-5
 Gradients option       PostSCFGGA      .... off
 Hybrid DFT is turned on
   Fraction HF Exchange ScalHFX         ....  0.200000
   Scaling of DF-GGA-X  ScalDFX         ....  0.720000
   Scaling of DF-GGA-C  ScalDFC         ....  0.810000
   Scaling of DF-LDA-C  ScalLDAC        ....  1.000000
   Perturbative correction              ....  0.000000
   Density functional embedding theory  .... OFF
   NL short-range parameter             ....  4.800000
 RI-approximation to the Coulomb term is turned on
   Number of AuxJ basis functions       .... 1341
   RIJ-COSX (HFX calculated with COS-X)).... on


General Settings:
 Integral files         IntName         .... /Users/cxs454/Desktop/DecomPoly/S-S_Curve/BOPh_2
 Hartree-Fock type      HFTyp           .... RHF
 Total Charge           Charge          ....    0
 Multiplicity           Mult            ....    1
 Number of Electrons    NEL             ....  162
 Basis Dimension        Dim             ....  834
 Nuclear Repulsion      ENuc            ....   1719.8713491898 Eh

Convergence Acceleration:
 DIIS                   CNVDIIS         .... on
   Start iteration      DIISMaxIt       ....    12
   Startup error        DIISStart       ....  0.200000
   # of expansion vecs  DIISMaxEq       ....     5
   Bias factor          DIISBfac        ....   1.050
   Max. coefficient     DIISMaxC        ....  10.000
 Trust-Rad. Augm. Hess. CNVTRAH         .... auto
   Auto Start mean grad. ratio tolernc. ....  1.125000
   Auto Start start iteration           ....    20
   Auto Start num. interpolation iter.  ....    10
   Max. Number of Micro iterations      ....    16
   Max. Number of Macro iterations      .... Maxiter - #DIIS iter
   Number of Davidson start vectors     ....     2
   Converg. threshold I  (grad. norm)   ....   1.000e-05
   Converg. threshold II (energy diff.) ....   1.000e-08
   Grad. Scal. Fac. for Micro threshold ....   0.100
   Minimum threshold for Micro iter.    ....   0.010
   NR start threshold (gradient norm)   ....   0.001
   Initial trust radius                 ....   0.400
   Minimum AH scaling param. (alpha)    ....   1.000
   Maximum AH scaling param. (alpha)    .... 1000.000
   Orbital update algorithm             .... Taylor
   White noise on init. David. guess    .... on
   Maximum white noise                  ....   0.010
   Quad. conv. algorithm                .... NR
 SOSCF                  CNVSOSCF        .... on
   Start iteration      SOSCFMaxIt      ....   150
   Startup grad/error   SOSCFStart      ....  0.003300
 Level Shifting         CNVShift        .... on
   Level shift para.    LevelShift      ....    0.2500
   Turn off err/grad.   ShiftErr        ....    0.0010
 Zerner damping         CNVZerner       .... off
 Static damping         CNVDamp         .... on
   Fraction old density DampFac         ....    0.7000
   Max. Damping (<1)    DampMax         ....    0.9800
   Min. Damping (>=0)   DampMin         ....    0.0000
   Turn off err/grad.   DampErr         ....    0.1000
 Fernandez-Rico         CNVRico         .... off

SCF Procedure:
 Maximum # iterations   MaxIter         ....   125
 SCF integral mode      SCFMode         .... Direct
   Integral package                     .... SHARK and LIBINT hybrid scheme
 Reset frequency        DirectResetFreq ....    20
 Integral Threshold     Thresh          ....  2.500e-11 Eh
 Primitive CutOff       TCut            ....  2.500e-12 Eh

Convergence Tolerance:
 Convergence Check Mode ConvCheckMode   .... Total+1el-Energy
 Convergence forced     ConvForced      .... 0
 Energy Change          TolE            ....  1.000e-08 Eh
 1-El. energy change                    ....  1.000e-05 Eh
 Orbital Gradient       TolG            ....  1.000e-05
 Orbital Rotation angle TolX            ....  1.000e-05
 DIIS Error             TolErr          ....  5.000e-07


Diagonalization of the overlap matrix:
Smallest eigenvalue                        ... 6.603e-06
Time for diagonalization                   ...    0.109 sec
Threshold for overlap eigenvalues          ... 1.000e-08
Number of eigenvalues below threshold      ... 0
Time for construction of square roots      ...    0.056 sec
Total time needed                          ...    0.166 sec

Time for model grid setup =    0.613 sec

------------------------------
INITIAL GUESS: MODEL POTENTIAL
------------------------------
Loading Hartree-Fock densities                     ... done
Calculating cut-offs                               ... done
Initializing the effective Hamiltonian             ... done
Setting up the integral package (SHARK)            ... done
Starting the Coulomb interaction                   ... done (   1.6 sec)
Reading the grid                                   ... done
Mapping shells                                     ... done
Starting the XC term evaluation                    ... done (   1.2 sec)
  promolecular density results
     # of electrons  =    161.987054144
     EX              =   -133.156134020
     EC              =     -5.482981414
     EX+EC           =   -138.639115434
Transforming the Hamiltonian                       ... done (   0.0 sec)
Diagonalizing the Hamiltonian                      ... done (   0.1 sec)
Back transforming the eigenvectors                 ... done (   0.0 sec)
Now organizing SCF variables                       ... done
                      ------------------
                      INITIAL GUESS DONE (   3.6 sec)
                      ------------------
-------------------
DFT GRID GENERATION
-------------------

General Integration Accuracy     IntAcc      ... 4.388
Radial Grid Type                 RadialGrid  ... OptM3 with GC (2021)
Angular Grid (max. ang.)         AngularGrid ... 4 (Lebedev-302)
Angular grid pruning method      GridPruning ... 4 (adaptive)
Weight generation scheme         WeightScheme... Becke
Basis function cutoff            BFCut       ... 1.0000e-11
Integration weight cutoff        WCut        ... 1.0000e-14
Angular grids for H and He will be reduced by one unit
Partially contracted basis set               ... off
Rotationally invariant grid construction     ... off

Total number of grid points                  ...   191427
Total number of batches                      ...     3012
Average number of points per batch           ...       63
Average number of grid points per atom       ...     4908
Time for grid setup =    2.090 sec

--------------------
COSX GRID GENERATION
--------------------

GRIDX 1
-------
General Integration Accuracy     IntAcc      ... 3.816
Radial Grid Type                 RadialGrid  ... OptM3 with GC (2021)
Angular Grid (max. ang.)         AngularGrid ... 1 (Lebedev-50)
Angular grid pruning method      GridPruning ... 4 (adaptive)
Weight generation scheme         WeightScheme... Becke
Basis function cutoff            BFCut       ... 1.0000e-11
Integration weight cutoff        WCut        ... 1.0000e-14
Angular grids for H and He will be reduced by one unit
Partially contracted basis set               ... on
Rotationally invariant grid construction     ... off

Total number of grid points                  ...    24275
Total number of batches                      ...      388
Average number of points per batch           ...       62
Average number of grid points per atom       ...      622
UseSFitting                                  ... on

GRIDX 2
-------
General Integration Accuracy     IntAcc      ... 4.020
Radial Grid Type                 RadialGrid  ... OptM3 with GC (2021)
Angular Grid (max. ang.)         AngularGrid ... 2 (Lebedev-110)
Angular grid pruning method      GridPruning ... 4 (adaptive)
Weight generation scheme         WeightScheme... Becke
Basis function cutoff            BFCut       ... 1.0000e-11
Integration weight cutoff        WCut        ... 1.0000e-14
Angular grids for H and He will be reduced by one unit
Partially contracted basis set               ... on
Rotationally invariant grid construction     ... off

Total number of grid points                  ...    53435
Total number of batches                      ...      854
Average number of points per batch           ...       62
Average number of grid points per atom       ...     1370
UseSFitting                                  ... on

GRIDX 3
-------
General Integration Accuracy     IntAcc      ... 4.338
Radial Grid Type                 RadialGrid  ... OptM3 with GC (2021)
Angular Grid (max. ang.)         AngularGrid ... 3 (Lebedev-194)
Angular grid pruning method      GridPruning ... 4 (adaptive)
Weight generation scheme         WeightScheme... Becke
Basis function cutoff            BFCut       ... 1.0000e-11
Integration weight cutoff        WCut        ... 1.0000e-14
Angular grids for H and He will be reduced by one unit
Partially contracted basis set               ... on
Rotationally invariant grid construction     ... off

Total number of grid points                  ...   117277
Total number of batches                      ...     1850
Average number of points per batch           ...       63
Average number of grid points per atom       ...     3007
UseSFitting                                  ... on

Time for X-Grid setup             =    3.824 sec

--------------
SCF ITERATIONS
--------------
ITER       Energy         Delta-E        Max-DP      RMS-DP      [F,P]     Damp
               ***  Starting incremental Fock matrix formation  ***
  0   -994.6333997295   0.000000000000 0.04866449  0.00067973  0.2949027 0.7000
  1   -994.9442136708  -0.310813941384 0.02768484  0.00049019  0.1294176 0.7000
                               ***Turning on DIIS***
  2   -995.0712960361  -0.127082365260 0.03320780  0.00084931  0.0363452 0.0000
  3   -995.2639582221  -0.192662185953 0.01916652  0.00032328  0.0674807 0.0000
  4   -995.3095834505  -0.045625228409 0.00656755  0.00011572  0.0090257 0.0000
  5   -995.3116439339  -0.002060483471 0.00258842  0.00004111  0.0058200 0.0000
                      *** Initiating the SOSCF procedure ***
                           *** Shutting down DIIS ***
                      *** Re-Reading the Fockian *** 
                      *** Removing any level shift *** 
ITER      Energy       Delta-E        Grad      Rot      Max-DP    RMS-DP
  6   -995.31179410  -0.0001501707  0.000251  0.000251  0.000835  0.000021
               *** Restarting incremental Fock matrix formation ***
  7   -995.31178384   0.0000102630  0.000109  0.000443  0.002489  0.000034
  8   -995.31178506  -0.0000012228  0.000084  0.000228  0.000694  0.000010
  9   -995.31178524  -0.0000001790  0.000054  0.000122  0.000671  0.000009
 10   -995.31178539  -0.0000001511  0.000011  0.000040  0.000061  0.000001
 11   -995.31178542  -0.0000000247  0.000019  0.000032  0.000071  0.000001
 12   -995.31178541   0.0000000090  0.000005  0.000018  0.000034  0.000001
 13   -995.31178542  -0.0000000147  0.000005  0.000011  0.000029  0.000001
                  ***Gradient check signals convergence***
              ***Rediagonalizing the Fockian in SOSCF/NRSCF***

               *****************************************************
               *                     SUCCESS                       *
               *           SCF CONVERGED AFTER  14 CYCLES          *
               *****************************************************

Old exchange energy                            =    -27.090969279 Eh
New exchange energy                            =    -27.090970889 Eh
Exchange energy change after final integration =     -0.000001609 Eh
Total energy after final integration           =   -995.311787038 Eh
Final COS-X integration done in                =   130.361 sec

----------------
TOTAL SCF ENERGY
----------------

Total Energy       :         -995.38402662 Eh          -27085.77638 eV
SCF Energy         :         -995.31178704 Eh          -27083.81064 eV
External Potential :           -0.07223958 Eh              -1.96574 eV

Components:
Nuclear Repulsion  :         1719.87134919 Eh           46800.07868 eV
External Potential :           -0.07223958 Eh              -1.96574 eV
Electronic Energy  :        -2715.18313623 Eh          -73883.88932 eV
One Electron Energy:        -4768.04460832 Eh         -129745.08991 eV
Two Electron Energy:         2052.86147209 Eh           55861.20058 eV
Max COSX asymmetry :            0.00000091 Eh               0.00002 eV

Virial components:
Potential Energy   :        -1986.22353284 Eh          -54047.89007 eV
Kinetic Energy     :          990.91174580 Eh           26964.07943 eV
Virial Ratio       :            2.00444040


DFT components:
N(Alpha)           :       81.000099141039 electrons
N(Beta)            :       81.000099141039 electrons
N(Total)           :      162.000198282078 electrons
E(X)               :     -107.592245365748 Eh       
E(C)               :       -6.482591063283 Eh       
E(XC)              :     -114.074836429032 Eh       
DFET-embed. en.    :        0.000000000000 Eh       

---------------
SCF CONVERGENCE
---------------

  Last Energy change         ...   -3.9465e-09  Tolerance :   1.0000e-08
  Last MAX-Density change    ...    2.9976e-15  Tolerance :   1.0000e-07
  Last RMS-Density change    ...    1.2900e-17  Tolerance :   5.0000e-09
  Last Orbital Gradient      ...    4.8393e-07  Tolerance :   1.0000e-05
  Last Orbital Rotation      ...    1.4987e-06  Tolerance :   1.0000e-05

             **** THE GBW FILE WAS UPDATED (/Users/cxs454/Desktop/DecomPoly/S-S_Curve/BOPh_2.gbw) ****
             **** DENSITY /Users/cxs454/Desktop/DecomPoly/S-S_Curve/BOPh_2.scfp WAS UPDATED ****
             **** ENERGY FILE WAS UPDATED (/Users/cxs454/Desktop/DecomPoly/S-S_Curve/BOPh_2.en.tmp) ****
             **** THE GBW FILE WAS UPDATED (/Users/cxs454/Desktop/DecomPoly/S-S_Curve/BOPh_2.gbw) ****
             **** DENSITY /Users/cxs454/Desktop/DecomPoly/S-S_Curve/BOPh_2.scfp WAS UPDATED ****
----------------
ORBITAL ENERGIES
----------------

  NO   OCC          E(Eh)            E(eV) 
   0   2.0000     -19.140736      -520.8459 
   1   2.0000     -19.140708      -520.8451 
   2   2.0000     -19.140578      -520.8416 
   3   2.0000     -10.179905      -277.0093 
   4   2.0000     -10.179901      -277.0092 
   5   2.0000     -10.178457      -276.9699 
   6   2.0000     -10.176448      -276.9152 
   7   2.0000     -10.176441      -276.9150 
   8   2.0000     -10.176364      -276.9129 
   9   2.0000     -10.176354      -276.9127 
  10   2.0000     -10.175057      -276.8774 
  11   2.0000     -10.175041      -276.8769 
  12   2.0000     -10.174816      -276.8708 
  13   2.0000     -10.174814      -276.8708 
  14   2.0000     -10.174760      -276.8693 
  15   2.0000     -10.174751      -276.8690 
  16   2.0000     -10.173744      -276.8416 
  17   2.0000     -10.173709      -276.8407 
  18   2.0000     -10.160558      -276.4828 
  19   2.0000     -10.159547      -276.4553 
  20   2.0000     -10.159539      -276.4551 
  21   2.0000      -6.796165      -184.9330 
  22   2.0000      -6.794230      -184.8804 
  23   2.0000      -6.794179      -184.8790 
  24   2.0000      -1.069988       -29.1158 
  25   2.0000      -1.011384       -27.5212 
  26   2.0000      -1.011012       -27.5110 
  27   2.0000      -0.856661       -23.3109 
  28   2.0000      -0.856443       -23.3050 
  29   2.0000      -0.855241       -23.2723 
  30   2.0000      -0.749957       -20.4074 
  31   2.0000      -0.749264       -20.3885 
  32   2.0000      -0.748510       -20.3680 
  33   2.0000      -0.748052       -20.3555 
  34   2.0000      -0.747214       -20.3327 
  35   2.0000      -0.746249       -20.3065 
  36   2.0000      -0.621183       -16.9033 
  37   2.0000      -0.620214       -16.8769 
  38   2.0000      -0.608545       -16.5594 
  39   2.0000      -0.604502       -16.4493 
  40   2.0000      -0.603628       -16.4256 
  41   2.0000      -0.603618       -16.4253 
  42   2.0000      -0.567983       -15.4556 
  43   2.0000      -0.567815       -15.4510 
  44   2.0000      -0.531557       -14.4644 
  45   2.0000      -0.530115       -14.4252 
  46   2.0000      -0.514339       -13.9959 
  47   2.0000      -0.513670       -13.9777 
  48   2.0000      -0.475251       -12.9322 
  49   2.0000      -0.458165       -12.4673 
  50   2.0000      -0.454949       -12.3798 
  51   2.0000      -0.454204       -12.3595 
  52   2.0000      -0.452735       -12.3195 
  53   2.0000      -0.448938       -12.2162 
  54   2.0000      -0.448594       -12.2069 
  55   2.0000      -0.443614       -12.0714 
  56   2.0000      -0.424654       -11.5554 
  57   2.0000      -0.424150       -11.5417 
  58   2.0000      -0.422039       -11.4843 
  59   2.0000      -0.408714       -11.1217 
  60   2.0000      -0.407854       -11.0983 
  61   2.0000      -0.405765       -11.0414 
  62   2.0000      -0.383128       -10.4254 
  63   2.0000      -0.382229       -10.4010 
  64   2.0000      -0.369843       -10.0639 
  65   2.0000      -0.362160        -9.8549 
  66   2.0000      -0.362001        -9.8505 
  67   2.0000      -0.353760        -9.6263 
  68   2.0000      -0.353623        -9.6226 
  69   2.0000      -0.343834        -9.3562 
  70   2.0000      -0.343599        -9.3498 
  71   2.0000      -0.342273        -9.3137 
  72   2.0000      -0.340518        -9.2660 
  73   2.0000      -0.318270        -8.6606 
  74   2.0000      -0.316060        -8.6004 
  75   2.0000      -0.263139        -7.1604 
  76   2.0000      -0.262239        -7.1359 
  77   2.0000      -0.258810        -7.0426 
  78   2.0000      -0.258706        -7.0398 
  79   2.0000      -0.257703        -7.0125 
  80   2.0000      -0.257628        -7.0104 
  81   0.0000      -0.052073        -1.4170 
  82   0.0000      -0.050598        -1.3768 
  83   0.0000      -0.027824        -0.7571 
  84   0.0000      -0.013092        -0.3562 
  85   0.0000      -0.012729        -0.3464 
  86   0.0000      -0.011649        -0.3170 
  87   0.0000       0.019896         0.5414 
  88   0.0000       0.050083         1.3628 
  89   0.0000       0.050317         1.3692 
  90   0.0000       0.053757         1.4628 
  91   0.0000       0.055402         1.5076 
  92   0.0000       0.056154         1.5280 
  93   0.0000       0.067360         1.8330 
  94   0.0000       0.067481         1.8363 
  95   0.0000       0.070394         1.9155 
  96   0.0000       0.083724         2.2782 
  97   0.0000       0.084021         2.2863 
  98   0.0000       0.085376         2.3232 
  99   0.0000       0.087787         2.3888 
 100   0.0000       0.101763         2.7691 
 101   0.0000       0.102109         2.7785 
 102   0.0000       0.109715         2.9855 
 103   0.0000       0.109951         2.9919 
 104   0.0000       0.117965         3.2100 
 105   0.0000       0.118508         3.2248 
 106   0.0000       0.135707         3.6928 
 107   0.0000       0.137021         3.7285 
 108   0.0000       0.137751         3.7484 
 109   0.0000       0.157862         4.2956 
 110   0.0000       0.157889         4.2964 
 111   0.0000       0.167020         4.5448 
 112   0.0000       0.168330         4.5805 
 113   0.0000       0.168683         4.5901 
 114   0.0000       0.183622         4.9966 
 115   0.0000       0.183954         5.0056 
 116   0.0000       0.194999         5.3062 
 117   0.0000       0.195195         5.3115 
 118   0.0000       0.204810         5.5732 
 119   0.0000       0.206240         5.6121 
 120   0.0000       0.206576         5.6212 
 121   0.0000       0.209299         5.6953 
 122   0.0000       0.209703         5.7063 
 123   0.0000       0.216295         5.8857 
 124   0.0000       0.220617         6.0033 
 125   0.0000       0.221428         6.0254 
 126   0.0000       0.226281         6.1574 
 127   0.0000       0.226586         6.1657 
 128   0.0000       0.226664         6.1678 
 129   0.0000       0.238952         6.5022 
 130   0.0000       0.239667         6.5217 
 131   0.0000       0.247072         6.7232 
 132   0.0000       0.247194         6.7265 
 133   0.0000       0.248174         6.7532 
 134   0.0000       0.250409         6.8140 
 135   0.0000       0.251515         6.8441 
 136   0.0000       0.251851         6.8532 
 137   0.0000       0.258030         7.0214 
 138   0.0000       0.267266         7.2727 
 139   0.0000       0.275093         7.4857 
 140   0.0000       0.275637         7.5005 
 141   0.0000       0.278592         7.5809 
 142   0.0000       0.283703         7.7199 
 143   0.0000       0.283946         7.7266 
 144   0.0000       0.288344         7.8462 
 145   0.0000       0.291481         7.9316 
 146   0.0000       0.296403         8.0655 
 147   0.0000       0.296678         8.0730 
 148   0.0000       0.306789         8.3482 
 149   0.0000       0.307010         8.3542 
 150   0.0000       0.328861         8.9488 
 151   0.0000       0.328919         8.9504 
 152   0.0000       0.329278         8.9601 
 153   0.0000       0.329557         8.9677 
 154   0.0000       0.337638         9.1876 
 155   0.0000       0.340098         9.2545 
 156   0.0000       0.340895         9.2762 
 157   0.0000       0.351863         9.5747 
 158   0.0000       0.361165         9.8278 
 159   0.0000       0.363673         9.8960 
 160   0.0000       0.364145         9.9089 
 161   0.0000       0.369324        10.0498 
 162   0.0000       0.369753        10.0615 
 163   0.0000       0.380270        10.3477 
 164   0.0000       0.381404        10.3785 
 165   0.0000       0.383983        10.4487 
 166   0.0000       0.384563        10.4645 
 167   0.0000       0.391386        10.6502 
 168   0.0000       0.394011        10.7216 
 169   0.0000       0.394277        10.7288 
 170   0.0000       0.403680        10.9847 
 171   0.0000       0.403984        10.9930 
 172   0.0000       0.404484        11.0066 
 173   0.0000       0.405262        11.0277 
 174   0.0000       0.408719        11.1218 
 175   0.0000       0.409098        11.1321 
 176   0.0000       0.409503        11.1431 
 177   0.0000       0.417418        11.3585 
 178   0.0000       0.417522        11.3614 
 179   0.0000       0.431602        11.7445 
 180   0.0000       0.431965        11.7544 
 181   0.0000       0.432060        11.7569 
 182   0.0000       0.432805        11.7772 
 183   0.0000       0.432878        11.7792 
 184   0.0000       0.453768        12.3477 
 185   0.0000       0.454019        12.3545 
 186   0.0000       0.461342        12.5538 
 187   0.0000       0.461982        12.5712 
 188   0.0000       0.472137        12.8475 
 189   0.0000       0.475000        12.9254 
 190   0.0000       0.477253        12.9867 
 191   0.0000       0.478305        13.0153 
 192   0.0000       0.487966        13.2782 
 193   0.0000       0.487987        13.2788 
 194   0.0000       0.488993        13.3062 
 195   0.0000       0.501820        13.6552 
 196   0.0000       0.503398        13.6982 
 197   0.0000       0.506288        13.7768 
 198   0.0000       0.508005        13.8235 
 199   0.0000       0.513359        13.9692 
 200   0.0000       0.516193        14.0463 
 201   0.0000       0.516466        14.0538 
 202   0.0000       0.518091        14.0980 
 203   0.0000       0.518690        14.1143 
 204   0.0000       0.530748        14.4424 
 205   0.0000       0.532934        14.5019 
 206   0.0000       0.533598        14.5199 
 207   0.0000       0.537977        14.6391 
 208   0.0000       0.554405        15.0861 
 209   0.0000       0.557095        15.1593 
 210   0.0000       0.558305        15.1923 
 211   0.0000       0.587638        15.9904 
 212   0.0000       0.589707        16.0467 
 213   0.0000       0.589879        16.0514 
 214   0.0000       0.607111        16.5203 
 215   0.0000       0.608866        16.5681 
 216   0.0000       0.626524        17.0486 
 217   0.0000       0.626738        17.0544 
 218   0.0000       0.636929        17.3317 
 219   0.0000       0.642890        17.4939 
 220   0.0000       0.643012        17.4973 
 221   0.0000       0.650402        17.6984 
 222   0.0000       0.650718        17.7069 
 223   0.0000       0.664401        18.0793 
 224   0.0000       0.664786        18.0897 
 225   0.0000       0.669239        18.2109 
 226   0.0000       0.669904        18.2290 
 227   0.0000       0.674457        18.3529 
 228   0.0000       0.675876        18.3915 
 229   0.0000       0.698811        19.0156 
 230   0.0000       0.700615        19.0647 
 231   0.0000       0.701044        19.0764 
 232   0.0000       0.701615        19.0919 
 233   0.0000       0.707974        19.2650 
 234   0.0000       0.708129        19.2692 
 235   0.0000       0.708662        19.2837 
 236   0.0000       0.718822        19.5601 
 237   0.0000       0.718999        19.5649 
 238   0.0000       0.736471        20.0404 
 239   0.0000       0.745043        20.2736 
 240   0.0000       0.745185        20.2775 
 241   0.0000       0.745744        20.2927 
 242   0.0000       0.746990        20.3266 
 243   0.0000       0.747043        20.3281 
 244   0.0000       0.751048        20.4371 
 245   0.0000       0.764497        20.8030 
 246   0.0000       0.764998        20.8166 
 247   0.0000       0.777086        21.1456 
 248   0.0000       0.778196        21.1758 
 249   0.0000       0.781188        21.2572 
 250   0.0000       0.781243        21.2587 
 251   0.0000       0.781801        21.2739 
 252   0.0000       0.785194        21.3662 
 253   0.0000       0.795851        21.6562 
 254   0.0000       0.812494        22.1091 
 255   0.0000       0.825513        22.4633 
 256   0.0000       0.826307        22.4850 
 257   0.0000       0.827947        22.5296 
 258   0.0000       0.828297        22.5391 
 259   0.0000       0.830115        22.5886 
 260   0.0000       0.842896        22.9364 
 261   0.0000       0.843607        22.9557 
 262   0.0000       0.854150        23.2426 
 263   0.0000       0.854643        23.2560 
 264   0.0000       0.875498        23.8235 
 265   0.0000       0.878976        23.9181 
 266   0.0000       0.879935        23.9443 
 267   0.0000       0.881098        23.9759 
 268   0.0000       0.882663        24.0185 
 269   0.0000       0.892163        24.2770 
 270   0.0000       0.895633        24.3714 
 271   0.0000       0.896299        24.3895 
 272   0.0000       0.917211        24.9586 
 273   0.0000       0.917474        24.9657 
 274   0.0000       0.917900        24.9773 
 275   0.0000       0.920034        25.0354 
 276   0.0000       0.949985        25.8504 
 277   0.0000       0.950999        25.8780 
 278   0.0000       0.969513        26.3818 
 279   0.0000       0.970330        26.4040 
 280   0.0000       0.979017        26.6404 
 281   0.0000       0.979075        26.6420 
 282   0.0000       0.982937        26.7471 
 283   0.0000       1.011512        27.5246 
 284   0.0000       1.011718        27.5302 
 285   0.0000       1.025091        27.8941 
 286   0.0000       1.026060        27.9205 
 287   0.0000       1.032239        28.0886 
 288   0.0000       1.041545        28.3419 
 289   0.0000       1.047162        28.4947 
 290   0.0000       1.047835        28.5130 
 291   0.0000       1.054093        28.6833 
 292   0.0000       1.062300        28.9067 
 293   0.0000       1.073833        29.2205 
 294   0.0000       1.074152        29.2292 
 295   0.0000       1.087670        29.5970 
 296   0.0000       1.093757        29.7626 
 297   0.0000       1.095284        29.8042 
 298   0.0000       1.122691        30.5500 
 299   0.0000       1.122726        30.5509 
 300   0.0000       1.123438        30.5703 
 301   0.0000       1.136063        30.9139 
 302   0.0000       1.136571        30.9277 
 303   0.0000       1.140145        31.0249 
 304   0.0000       1.166587        31.7444 
 305   0.0000       1.166972        31.7549 
 306   0.0000       1.167301        31.7639 
 307   0.0000       1.185464        32.2581 
 308   0.0000       1.205785        32.8111 
 309   0.0000       1.207037        32.8451 
 310   0.0000       1.213044        33.0086 
 311   0.0000       1.224199        33.3121 
 312   0.0000       1.224363        33.3166 
 313   0.0000       1.228643        33.4331 
 314   0.0000       1.228670        33.4338 
 315   0.0000       1.235684        33.6247 
 316   0.0000       1.236383        33.6437 
 317   0.0000       1.236410        33.6444 
 318   0.0000       1.237665        33.6786 
 319   0.0000       1.241227        33.7755 
 320   0.0000       1.242186        33.8016 
 321   0.0000       1.256200        34.1829 
 322   0.0000       1.258086        34.2343 
 323   0.0000       1.259517        34.2732 
 324   0.0000       1.272231        34.6192 
 325   0.0000       1.275035        34.6955 
 326   0.0000       1.285875        34.9904 
 327   0.0000       1.287075        35.0231 
 328   0.0000       1.287254        35.0280 
 329   0.0000       1.289075        35.0775 
 330   0.0000       1.290833        35.1253 
 331   0.0000       1.315756        35.8035 
 332   0.0000       1.336661        36.3724 
 333   0.0000       1.336809        36.3764 
 334   0.0000       1.348713        36.7003 
 335   0.0000       1.349703        36.7273 
 336   0.0000       1.353631        36.8342 
 337   0.0000       1.364122        37.1196 
 338   0.0000       1.384067        37.6624 
 339   0.0000       1.384170        37.6652 
 340   0.0000       1.403768        38.1985 
 341   0.0000       1.404559        38.2200 
 342   0.0000       1.408484        38.3268 
 343   0.0000       1.418965        38.6120 
 344   0.0000       1.419128        38.6164 
 345   0.0000       1.422639        38.7120 
 346   0.0000       1.460051        39.7300 
 347   0.0000       1.460828        39.7512 
 348   0.0000       1.465191        39.8699 
 349   0.0000       1.484024        40.3823 
 350   0.0000       1.484476        40.3947 
 351   0.0000       1.486066        40.4379 
 352   0.0000       1.493518        40.6407 
 353   0.0000       1.494865        40.6773 
 354   0.0000       1.500686        40.8357 
 355   0.0000       1.500799        40.8388 
 356   0.0000       1.514527        41.2124 
 357   0.0000       1.526605        41.5410 
 358   0.0000       1.526854        41.5478 
 359   0.0000       1.527394        41.5625 
 360   0.0000       1.541098        41.9354 
 361   0.0000       1.546259        42.0759 
 362   0.0000       1.573469        42.8163 
 363   0.0000       1.573591        42.8196 
 364   0.0000       1.573982        42.8302 
 365   0.0000       1.577379        42.9227 
 366   0.0000       1.578309        42.9480 
 367   0.0000       1.604685        43.6657 
 368   0.0000       1.604900        43.6715 
 369   0.0000       1.605611        43.6909 
 370   0.0000       1.606406        43.7125 
 371   0.0000       1.608032        43.7568 
 372   0.0000       1.608347        43.7653 
 373   0.0000       1.612821        43.8871 
 374   0.0000       1.633408        44.4473 
 375   0.0000       1.633753        44.4567 
 376   0.0000       1.641673        44.6722 
 377   0.0000       1.642161        44.6855 
 378   0.0000       1.647790        44.8386 
 379   0.0000       1.659773        45.1647 
 380   0.0000       1.661850        45.2212 
 381   0.0000       1.662730        45.2452 
 382   0.0000       1.662997        45.2524 
 383   0.0000       1.685406        45.8622 
 384   0.0000       1.687505        45.9193 
 385   0.0000       1.689167        45.9646 
 386   0.0000       1.695479        46.1363 
 387   0.0000       1.698273        46.2124 
 388   0.0000       1.698428        46.2166 
 389   0.0000       1.701273        46.2940 
 390   0.0000       1.708712        46.4964 
 391   0.0000       1.709084        46.5066 
 392   0.0000       1.710075        46.5335 
 393   0.0000       1.710396        46.5423 
 394   0.0000       1.718239        46.7557 
 395   0.0000       1.738896        47.3178 
 396   0.0000       1.739661        47.3386 
 397   0.0000       1.751410        47.6583 
 398   0.0000       1.752143        47.6782 
 399   0.0000       1.752304        47.6826 
 400   0.0000       1.752902        47.6989 
 401   0.0000       1.754985        47.7556 
 402   0.0000       1.812494        49.3205 
 403   0.0000       1.813175        49.3390 
 404   0.0000       1.838781        50.0358 
 405   0.0000       1.839306        50.0501 
 406   0.0000       1.846898        50.2567 
 407   0.0000       1.855142        50.4810 
 408   0.0000       1.892410        51.4951 
 409   0.0000       1.893643        51.5287 
 410   0.0000       1.903589        51.7993 
 411   0.0000       1.911707        52.0202 
 412   0.0000       1.915294        52.1178 
 413   0.0000       1.917089        52.1666 
 414   0.0000       1.933032        52.6005 
 415   0.0000       1.936031        52.6821 
 416   0.0000       1.936990        52.7082 
[...]
    112       0.001626  -0.020639   0.025062
    113       0.000155  -0.001911   0.002321
    114      -0.000470   0.006016  -0.007404
    115      -0.018244   0.229842  -0.279246
    116      -0.001066   0.013567  -0.016643


-----------
IR SPECTRUM
-----------

 Mode   freq       eps      Int      T**2         TX        TY        TZ
       cm**-1   L/(mol*cm) km/mol    a.u.
----------------------------------------------------------------------------
  6:     30.83   0.000000    0.00  0.000001  ( 0.001078  0.000023 -0.000289)
  7:     31.88   0.000004    0.02  0.000040  ( 0.005197  0.000222 -0.003593)
  8:     35.57   0.000000    0.00  0.000001  (-0.000771 -0.000065  0.000339)
  9:     37.91   0.000104    0.53  0.000859  ( 0.024893  0.000368 -0.015474)
 10:     51.18   0.000016    0.08  0.000097  ( 0.004780 -0.004584  0.007279)
 11:     51.25   0.000010    0.05  0.000064  (-0.001584 -0.007259 -0.002952)
 12:     88.47   0.000000    0.00  0.000000  (-0.000036 -0.000146 -0.000036)
 13:     89.23   0.000000    0.00  0.000000  (-0.000372 -0.000128 -0.000080)
 14:    139.19   0.000000    0.00  0.000000  (-0.000044  0.000134  0.000039)
 15:    165.86   0.000000    0.00  0.000000  (-0.000042 -0.000031 -0.000195)
 16:    171.44   0.000013    0.07  0.000024  (-0.004267  0.000107  0.002497)
 17:    194.68   0.000227    1.15  0.000365  (-0.016107 -0.000074  0.010252)
 18:    213.67   0.000012    0.06  0.000018  ( 0.001992 -0.002326  0.002882)
 19:    242.15   0.000044    0.22  0.000056  (-0.003302  0.004154 -0.005302)
 20:    245.45   0.000107    0.54  0.000136  (-0.003336 -0.009692 -0.005519)
 21:    363.28   0.000106    0.54  0.000091  (-0.004204  0.005322 -0.006720)
 22:    367.18   0.000229    1.16  0.000195  (-0.004088 -0.011585 -0.006642)
 23:    408.91   0.000000    0.00  0.000000  (-0.000006  0.000033 -0.000059)
 24:    409.63   0.000000    0.00  0.000000  (-0.000055 -0.000030  0.000024)
 25:    409.86   0.000000    0.00  0.000000  ( 0.000051  0.000020  0.000017)
 26:    431.82   0.000000    0.00  0.000000  ( 0.000082  0.000035  0.000076)
 27:    432.02   0.000001    0.00  0.000001  ( 0.000665 -0.000064 -0.000261)
 28:    455.07   0.000629    3.18  0.000432  (-0.017606 -0.000123  0.011025)
 29:    514.46   0.000001    0.00  0.000000  ( 0.000244  0.000579  0.000276)
 30:    592.51   0.009235   46.67  0.004864  (-0.030647  0.039668 -0.048486)
 31:    592.92   0.008055   40.70  0.004239  (-0.019334 -0.053450 -0.031757)
 32:    636.27   0.000011    0.05  0.000005  ( 0.000791  0.001756  0.001240)
 33:    636.98   0.000225    1.14  0.000110  (-0.004818  0.005372 -0.007623)
 34:    637.12   0.000157    0.80  0.000077  ( 0.002240  0.007676  0.003629)
 35:    658.70   0.000000    0.00  0.000000  ( 0.000206  0.000178  0.000244)
 36:    659.79   0.000001    0.00  0.000000  ( 0.000098 -0.000125  0.000505)
 37:    676.33   0.000050    0.25  0.000023  ( 0.001683 -0.002629  0.003636)
 38:    706.70   0.002712   13.71  0.001198  ( 0.029426  0.000226 -0.018211)
 39:    708.19   0.000002    0.01  0.000001  (-0.000453 -0.000407 -0.000593)
 40:    709.28   0.000002    0.01  0.000001  (-0.000744  0.000185 -0.000506)
 41:    720.58   0.057951  292.86  0.025097  (-0.134267 -0.000855  0.084076)
 42:    764.16   0.002791   14.10  0.001140  ( 0.015083 -0.018651  0.023757)
 43:    778.01   0.000989    5.00  0.000397  ( 0.005650  0.016542  0.009553)
 44:    786.04   0.000000    0.00  0.000000  (-0.000279 -0.000159 -0.000248)
 45:    786.86   0.000033    0.17  0.000013  ( 0.003252 -0.000071 -0.001567)
 46:    799.42   0.000101    0.51  0.000039  (-0.005330 -0.000181  0.003295)
 47:    809.19   0.000059    0.30  0.000023  (-0.001948  0.002760 -0.003385)
 48:    867.99   0.000000    0.00  0.000000  ( 0.000001 -0.000065  0.000064)
 49:    869.90   0.000000    0.00  0.000000  ( 0.000015 -0.000070 -0.000006)
 50:    870.30   0.000000    0.00  0.000000  (-0.000048 -0.000138  0.000051)
 51:    947.90   0.000026    0.13  0.000009  (-0.002378 -0.000103  0.001708)
 52:    951.79   0.000000    0.00  0.000000  (-0.000071 -0.000166 -0.000168)
 53:    953.25   0.000130    0.66  0.000043  (-0.005598  0.000010  0.003366)
 54:    966.52   0.000000    0.00  0.000000  ( 0.000007 -0.000029  0.000049)
 55:    970.44   0.000000    0.00  0.000000  ( 0.000010  0.000013  0.000042)
 56:    971.83   0.000000    0.00  0.000000  (-0.000019 -0.000096  0.000011)
 57:    983.49   0.000005    0.02  0.000002  (-0.001029  0.000008  0.000679)
 58:    986.13   0.000000    0.00  0.000000  (-0.000009  0.000020  0.000034)
 59:    986.90   0.000015    0.07  0.000005  (-0.001848  0.000050  0.001114)
 60:   1022.13   0.000014    0.07  0.000004  (-0.000979  0.001142 -0.001412)
 61:   1023.77   0.000299    1.51  0.000091  (-0.004019  0.005918 -0.006331)
 62:   1023.82   0.000261    1.32  0.000080  (-0.002896 -0.006969 -0.004766)
 63:   1033.45   0.000007    0.03  0.000002  (-0.000827  0.000728 -0.000928)
 64:   1050.30   0.003904   19.73  0.001160  ( 0.014898 -0.019586  0.023547)
 65:   1051.06   0.004766   24.09  0.001415  ( 0.011080  0.030931  0.018319)
 66:   1063.10   0.000013    0.07  0.000004  (-0.000843  0.000961 -0.001480)
 67:   1091.06   0.000125    0.63  0.000036  ( 0.002699 -0.003192  0.004277)
 68:   1091.55   0.000030    0.15  0.000009  (-0.001088 -0.002258 -0.001544)
 69:   1099.61   0.000010    0.05  0.000003  ( 0.000522  0.001387  0.000836)
 70:   1112.12   0.003071   15.52  0.000862  ( 0.012704 -0.017145  0.020162)
 71:   1115.05   0.007067   35.71  0.001978  ( 0.013040  0.036699  0.021468)
 72:   1182.82   0.000215    1.09  0.000057  (-0.002259 -0.006145 -0.003735)
 73:   1185.59   0.000164    0.83  0.000043  ( 0.001847  0.005526  0.003018)
 74:   1186.21   0.000116    0.58  0.000030  ( 0.000762  0.005323  0.001218)
 75:   1186.27   0.000182    0.92  0.000048  (-0.003417  0.002591 -0.005432)
 76:   1203.73   0.010048   50.78  0.002605  ( 0.022617 -0.028618  0.035700)
 77:   1205.33   0.008097   40.92  0.002096  ( 0.013279  0.037938  0.021927)
 78:   1208.03   0.000484    2.45  0.000125  (-0.005045  0.005821 -0.008102)
 79:   1260.47   0.051912  262.34  0.012852  ( 0.050655 -0.063137  0.079372)
 80:   1301.95   0.001473    7.44  0.000353  ( 0.005082  0.015924  0.008579)
 81:   1319.93   0.070290  355.22  0.016618  ( 0.057491 -0.071700  0.090400)
 82:   1324.21   0.000083    0.42  0.000020  (-0.001220 -0.003692 -0.002129)
 83:   1340.84   0.062520  315.95  0.014551  ( 0.034606  0.100350  0.057298)
 84:   1355.50   0.000944    4.77  0.000217  (-0.004328 -0.012051 -0.007308)
 85:   1357.10   0.005464   27.61  0.001256  ( 0.016667 -0.017499  0.025933)
 86:   1357.19   0.000952    4.81  0.000219  ( 0.004317 -0.012619  0.006405)
 87:   1360.00   0.014359   72.56  0.003295  (-0.026383  0.031014 -0.040457)
 88:   1379.18   0.283062  1430.48  0.064048  ( 0.111870 -0.140842  0.178034)
 89:   1390.92   0.369285  1866.22  0.082852  ( 0.082953  0.239258  0.136844)
 90:   1473.93   0.000399    2.02  0.000085  ( 0.002848  0.007435  0.004596)
 91:   1477.06   0.016976   85.79  0.003587  ( 0.026762 -0.032780  0.042377)
 92:   1478.61   0.020808  105.16  0.004392  ( 0.018969  0.055477  0.030889)
 93:   1524.07   0.000032    0.16  0.000006  (-0.001102  0.001428 -0.001791)
 94:   1531.63   0.003444   17.40  0.000702  ( 0.007550  0.022076  0.012541)
 95:   1534.29   0.001308    6.61  0.000266  (-0.007247  0.008829 -0.011646)
 96:   1614.16   0.000124    0.63  0.000024  (-0.001482 -0.004012 -0.002399)
 97:   1615.78   0.000917    4.64  0.000177  (-0.005931  0.007357 -0.009373)
 98:   1618.39   0.001066    5.39  0.000206  (-0.004086 -0.011969 -0.006757)
 99:   1638.24   0.004374   22.11  0.000833  (-0.012987  0.015980 -0.020229)
100:   1645.14   0.014003   70.76  0.002656  ( 0.014470  0.043268  0.023973)
101:   1646.20   0.004434   22.41  0.000841  (-0.012922  0.015000 -0.021180)
102:   3161.43   0.000038    0.19  0.000004  ( 0.000839 -0.001183  0.001290)
103:   3162.63   0.000022    0.11  0.000002  (-0.000321 -0.001324 -0.000515)
104:   3162.67   0.000012    0.06  0.000001  ( 0.000522  0.000314  0.000876)
105:   3169.39   0.000182    0.92  0.000018  (-0.001190 -0.003589 -0.001895)
106:   3170.94   0.000161    0.82  0.000016  ( 0.000451 -0.003896  0.000712)
107:   3171.01   0.000327    1.65  0.000032  (-0.002819  0.002014 -0.004488)
108:   3177.74   0.002243   11.34  0.000220  ( 0.006781 -0.008030  0.010480)
109:   3179.17   0.002743   13.86  0.000269  (-0.002045 -0.015937 -0.003329)
110:   3179.30   0.001821    9.20  0.000179  ( 0.006343  0.005214  0.010553)
111:   3184.70   0.005464   27.61  0.000535  ( 0.006806  0.019247  0.010892)
112:   3186.28   0.002745   13.87  0.000269  ( 0.004835  0.013671  0.007650)
113:   3186.40   0.008382   42.36  0.000821  ( 0.012729 -0.015866  0.020177)
114:   3191.12   0.003448   17.43  0.000337  (-0.008384  0.009783 -0.013085)
115:   3192.29   0.004464   22.56  0.000436  ( 0.005424  0.018071  0.008968)
116:   3192.41   0.001117    5.65  0.000109  (-0.005053  0.003866 -0.008291)

* The epsilon (eps) is given for a Dirac delta lineshape.
** The dipole moment derivative (T) already includes vibrational overlap.

The first frequency considered to be a vibration is 6
The total number of vibrations considered is 111


--------------------------
THERMOCHEMISTRY AT 298.15K
--------------------------

Temperature         ... 298.15 K
Pressure            ... 1.00 atm
Total Mass          ... 311.74 AMU

Throughout the following assumptions are being made:
  (1) The electronic state is orbitally nondegenerate
  (2) There are no thermally accessible electronically excited states
  (3) Hindered rotations indicated by low frequency modes are not
      treated as such but are treated as vibrations and this may
      cause some error
  (4) All equations used are the standard statistical mechanics
      equations for an ideal gas
  (5) All vibrations are strictly harmonic

freq.      30.83  E(vib)   ...       0.55 
freq.      31.88  E(vib)   ...       0.55 
freq.      35.57  E(vib)   ...       0.54 
freq.      37.91  E(vib)   ...       0.54 
freq.      51.18  E(vib)   ...       0.52 
freq.      51.25  E(vib)   ...       0.52 
freq.      88.47  E(vib)   ...       0.47 
freq.      89.23  E(vib)   ...       0.47 
freq.     139.19  E(vib)   ...       0.42 
freq.     165.86  E(vib)   ...       0.39 
freq.     171.44  E(vib)   ...       0.38 
freq.     194.68  E(vib)   ...       0.36 
freq.     213.67  E(vib)   ...       0.34 
freq.     242.15  E(vib)   ...       0.31 
freq.     245.45  E(vib)   ...       0.31 
freq.     363.28  E(vib)   ...       0.22 
freq.     367.18  E(vib)   ...       0.22 
freq.     408.91  E(vib)   ...       0.19 
freq.     409.63  E(vib)   ...       0.19 
freq.     409.86  E(vib)   ...       0.19 
freq.     431.82  E(vib)   ...       0.18 
freq.     432.02  E(vib)   ...       0.18 
freq.     455.07  E(vib)   ...       0.16 
freq.     514.46  E(vib)   ...       0.13 
freq.     592.51  E(vib)   ...       0.10 
freq.     592.92  E(vib)   ...       0.10 
freq.     636.27  E(vib)   ...       0.09 
freq.     636.98  E(vib)   ...       0.09 
freq.     637.12  E(vib)   ...       0.09 
freq.     658.70  E(vib)   ...       0.08 
freq.     659.79  E(vib)   ...       0.08 
freq.     676.33  E(vib)   ...       0.08 
freq.     706.70  E(vib)   ...       0.07 
freq.     708.19  E(vib)   ...       0.07 
freq.     709.28  E(vib)   ...       0.07 
freq.     720.58  E(vib)   ...       0.07 
freq.     764.16  E(vib)   ...       0.06 
freq.     778.01  E(vib)   ...       0.05 
freq.     786.04  E(vib)   ...       0.05 
freq.     786.86  E(vib)   ...       0.05 
freq.     799.42  E(vib)   ...       0.05 
freq.     809.19  E(vib)   ...       0.05 
freq.     867.99  E(vib)   ...       0.04 
freq.     869.90  E(vib)   ...       0.04 
freq.     870.30  E(vib)   ...       0.04 
freq.     947.90  E(vib)   ...       0.03 
freq.     951.79  E(vib)   ...       0.03 
freq.     953.25  E(vib)   ...       0.03 
freq.     966.52  E(vib)   ...       0.03 
freq.     970.44  E(vib)   ...       0.03 
freq.     971.83  E(vib)   ...       0.03 
freq.     983.49  E(vib)   ...       0.02 
freq.     986.13  E(vib)   ...       0.02 
freq.     986.90  E(vib)   ...       0.02 
freq.    1022.13  E(vib)   ...       0.02 
freq.    1023.77  E(vib)   ...       0.02 
freq.    1023.82  E(vib)   ...       0.02 
freq.    1033.45  E(vib)   ...       0.02 
freq.    1050.30  E(vib)   ...       0.02 
freq.    1051.06  E(vib)   ...       0.02 
freq.    1063.10  E(vib)   ...       0.02 
freq.    1091.06  E(vib)   ...       0.02 
freq.    1091.55  E(vib)   ...       0.02 
freq.    1099.61  E(vib)   ...       0.02 
freq.    1112.12  E(vib)   ...       0.01 
freq.    1115.05  E(vib)   ...       0.01 
freq.    1182.82  E(vib)   ...       0.01 
freq.    1185.59  E(vib)   ...       0.01 
freq.    1186.21  E(vib)   ...       0.01 
freq.    1186.27  E(vib)   ...       0.01 
freq.    1203.73  E(vib)   ...       0.01 
freq.    1205.33  E(vib)   ...       0.01 
freq.    1208.03  E(vib)   ...       0.01 
freq.    1260.47  E(vib)   ...       0.01 
freq.    1301.95  E(vib)   ...       0.01 
freq.    1319.93  E(vib)   ...       0.01 
freq.    1324.21  E(vib)   ...       0.01 
freq.    1340.84  E(vib)   ...       0.01 
freq.    1355.50  E(vib)   ...       0.01 
freq.    1357.10  E(vib)   ...       0.01 
freq.    1357.19  E(vib)   ...       0.01 
freq.    1360.00  E(vib)   ...       0.01 
freq.    1379.18  E(vib)   ...       0.01 
freq.    1390.92  E(vib)   ...       0.00 
freq.    1473.93  E(vib)   ...       0.00 
freq.    1477.06  E(vib)   ...       0.00 
freq.    1478.61  E(vib)   ...       0.00 
freq.    1524.07  E(vib)   ...       0.00 
freq.    1531.63  E(vib)   ...       0.00 
freq.    1534.29  E(vib)   ...       0.00 
freq.    1614.16  E(vib)   ...       0.00 
freq.    1615.78  E(vib)   ...       0.00 
freq.    1618.39  E(vib)   ...       0.00 
freq.    1638.24  E(vib)   ...       0.00 
freq.    1645.14  E(vib)   ...       0.00 
freq.    1646.20  E(vib)   ...       0.00 
freq.    3161.43  E(vib)   ...       0.00 
freq.    3162.63  E(vib)   ...       0.00 
freq.    3162.67  E(vib)   ...       0.00 
freq.    3169.39  E(vib)   ...       0.00 
freq.    3170.94  E(vib)   ...       0.00 
freq.    3171.01  E(vib)   ...       0.00 
freq.    3177.74  E(vib)   ...       0.00 
freq.    3179.17  E(vib)   ...       0.00 
freq.    3179.30  E(vib)   ...       0.00 
freq.    3184.70  E(vib)   ...       0.00 
freq.    3186.28  E(vib)   ...       0.00 
freq.    3186.40  E(vib)   ...       0.00 
freq.    3191.12  E(vib)   ...       0.00 
freq.    3192.29  E(vib)   ...       0.00 
freq.    3192.41  E(vib)   ...       0.00 

------------
INNER ENERGY
------------

The inner energy is: U= E(el) + E(ZPE) + E(vib) + E(rot) + E(trans)
    E(el)   - is the total energy from the electronic structure calculation
              = E(kin-el) + E(nuc-el) + E(el-el) + E(nuc-nuc)
    E(ZPE)  - the the zero temperature vibrational energy from the frequency calculation
    E(vib)  - the the finite temperature correction to E(ZPE) due to population
              of excited vibrational states
    E(rot)  - is the rotational thermal energy
    E(trans)- is the translational thermal energy

Summary of contributions to the inner energy U:
Electronic energy                ...   -995.39436573 Eh
Zero point energy                ...      0.30052154 Eh     188.58 kcal/mol
Thermal vibrational correction   ...      0.01649507 Eh      10.35 kcal/mol
Thermal rotational correction    ...      0.00141627 Eh       0.89 kcal/mol
Thermal translational correction ...      0.00141627 Eh       0.89 kcal/mol
-----------------------------------------------------------------------
Total thermal energy                   -995.07451658 Eh


Summary of corrections to the electronic energy:
(perhaps to be used in another calculation)
Total thermal correction                  0.01932761 Eh      12.13 kcal/mol
Non-thermal (ZPE) correction              0.30052154 Eh     188.58 kcal/mol
-----------------------------------------------------------------------
Total correction                          0.31984915 Eh     200.71 kcal/mol


--------
ENTHALPY
--------

The enthalpy is H = U + kB*T
                kB is Boltzmann's constant
Total free energy                 ...   -995.07451658 Eh 
Thermal Enthalpy correction       ...      0.00094421 Eh       0.59 kcal/mol
-----------------------------------------------------------------------
Total Enthalpy                    ...   -995.07357237 Eh


Note: Only C1 symmetry has been detected, increase convergence thresholds 
      if your molecule has a higher symmetry. Symmetry factor of 1.0 is   
      used for the rotational entropy correction. 
 

Note: Rotational entropy computed according to Herzberg 
Infrared and Raman Spectra, Chapter V,1, Van Nostrand Reinhold, 1945 
Point Group:  C1, Symmetry Number:   1  
Rotational constants in cm-1:     0.006591     0.006548     0.003285 

Vibrational entropy computed according to the QRRHO of S. Grimme
Chem.Eur.J. 2012 18 9955


-------
ENTROPY
-------

The entropy contributions are T*S = T*(S(el)+S(vib)+S(rot)+S(trans))
     S(el)   - electronic entropy
     S(vib)  - vibrational entropy
     S(rot)  - rotational entropy
     S(trans)- translational entropy
The entropies will be listed as multiplied by the temperature to get
units of energy

Electronic entropy                ...      0.00000000 Eh      0.00 kcal/mol
Vibrational entropy               ...      0.02926993 Eh     18.37 kcal/mol
Rotational entropy                ...      0.01695521 Eh     10.64 kcal/mol
Translational entropy             ...      0.02048156 Eh     12.85 kcal/mol
-----------------------------------------------------------------------
Final entropy term                ...      0.06670670 Eh     41.86 kcal/mol

In case the symmetry of your molecule has not been determined correctly
or in case you have a reason to use a different symmetry number we print 
out the resulting rotational entropy values for sn=1,12 :
 --------------------------------------------------------
|  sn= 1 | S(rot)=       0.01695521 Eh     10.64 kcal/mol|
|  sn= 2 | S(rot)=       0.01630075 Eh     10.23 kcal/mol|
|  sn= 3 | S(rot)=       0.01591792 Eh      9.99 kcal/mol|
|  sn= 4 | S(rot)=       0.01564629 Eh      9.82 kcal/mol|
|  sn= 5 | S(rot)=       0.01543561 Eh      9.69 kcal/mol|
|  sn= 6 | S(rot)=       0.01526346 Eh      9.58 kcal/mol|
|  sn= 7 | S(rot)=       0.01511792 Eh      9.49 kcal/mol|
|  sn= 8 | S(rot)=       0.01499184 Eh      9.41 kcal/mol|
|  sn= 9 | S(rot)=       0.01488063 Eh      9.34 kcal/mol|
|  sn=10 | S(rot)=       0.01478115 Eh      9.28 kcal/mol|
|  sn=11 | S(rot)=       0.01469116 Eh      9.22 kcal/mol|
|  sn=12 | S(rot)=       0.01460901 Eh      9.17 kcal/mol|
 --------------------------------------------------------


-------------------
GIBBS FREE ENERGY
-------------------

The Gibbs free energy is G = H - T*S

Total enthalpy                    ...   -995.07357237 Eh 
Total entropy correction          ...     -0.06670670 Eh    -41.86 kcal/mol
-----------------------------------------------------------------------
Final Gibbs free energy         ...   -995.14027907 Eh

For completeness - the Gibbs free energy minus the electronic energy
G-E(el)                           ...      0.25408666 Eh    159.44 kcal/mol


Timings for individual modules:

Sum of individual times         ...    53366.043 sec (= 889.434 min)
GTO integral calculation        ...        5.289 sec (=   0.088 min)   0.0 %
SCF iterations                  ...     5735.814 sec (=  95.597 min)  10.7 %
SCF Gradient evaluation         ...     2341.481 sec (=  39.025 min)   4.4 %
Geometry relaxation             ...        0.628 sec (=   0.010 min)   0.0 %
Analytical frequency calculation...    45282.831 sec (= 754.714 min)  84.9 %
                             ****ORCA TERMINATED NORMALLY****
TOTAL RUN TIME: 0 days 14 hours 49 minutes 27 seconds 400 msec
