
                                 *****************
                                 * O   R   C   A *
                                 *****************

                                            #,                                       
                                            ###                                      
                                            ####                                     
                                            #####                                    
                                            ######                                   
                                           ########,                                 
                                     ,,################,,,,,                         
                               ,,#################################,,                 
                          ,,##########################################,,             
                       ,#########################################, ''#####,          
                    ,#############################################,,   '####,        
                  ,##################################################,,,,####,       
                ,###########''''           ''''###############################       
              ,#####''   ,,,,##########,,,,          '''####'''          '####       
            ,##' ,,,,###########################,,,                        '##       
           ' ,,###''''                  '''############,,,                           
         ,,##''                                '''############,,,,        ,,,,,,###''
      ,#''                                            '''#######################'''  
     '                                                          ''''####''''         
             ,#######,   #######,   ,#######,      ##                                
            ,#'     '#,  ##    ##  ,#'     '#,    #''#        ######   ,####,        
            ##       ##  ##   ,#'  ##            #'  '#       #        #'  '#        
            ##       ##  #######   ##           ,######,      #####,   #    #        
            '#,     ,#'  ##    ##  '#,     ,#' ,#      #,         ##   #,  ,#        
             '#######'   ##     ##  '#######'  #'      '#     #####' # '####'        



                  #######################################################
                  #                        -***-                        #
                  #          Department of theory and spectroscopy      #
                  #    Directorship and core code : Frank Neese         #
                  #        Max Planck Institute fuer Kohlenforschung    #
                  #                Kaiser Wilhelm Platz 1               #
                  #                 D-45470 Muelheim/Ruhr               #
                  #                      Germany                        #
                  #                                                     #
                  #                  All rights reserved                #
                  #                        -***-                        #
                  #######################################################


                         Program Version 5.0.3 -  RELEASE  -


 With contributions from (in alphabetic order):
   Daniel Aravena         : Magnetic Suceptibility
   Michael Atanasov       : Ab Initio Ligand Field Theory (pilot matlab implementation)
   Alexander A. Auer      : GIAO ZORA, VPT2 properties, NMR spectrum
   Ute Becker             : Parallelization
   Giovanni Bistoni       : ED, misc. LED, open-shell LED, HFLD
   Martin Brehm           : Molecular dynamics
   Dmytro Bykov           : SCF Hessian
   Vijay G. Chilkuri      : MRCI spin determinant printing, contributions to CSF-ICE
   Dipayan Datta          : RHF DLPNO-CCSD density
   Achintya Kumar Dutta   : EOM-CC, STEOM-CC
   Dmitry Ganyushin       : Spin-Orbit,Spin-Spin,Magnetic field MRCI
   Miquel Garcia          : C-PCM and meta-GGA Hessian, CC/C-PCM, Gaussian charge scheme
   Yang Guo               : DLPNO-NEVPT2, F12-NEVPT2, CIM, IAO-localization
   Andreas Hansen         : Spin unrestricted coupled pair/coupled cluster methods
   Benjamin Helmich-Paris : MC-RPA, TRAH-SCF, COSX integrals
   Lee Huntington         : MR-EOM, pCC
   Robert Izsak           : Overlap fitted RIJCOSX, COSX-SCS-MP3, EOM
   Marcus Kettner         : VPT2
   Christian Kollmar      : KDIIS, OOCD, Brueckner-CCSD(T), CCSD density, CASPT2, CASPT2-K
   Simone Kossmann        : Meta GGA functionals, TD-DFT gradient, OOMP2, MP2 Hessian
   Martin Krupicka        : Initial AUTO-CI
   Lucas Lang             : DCDCAS
   Marvin Lechner         : AUTO-CI (C++ implementation), FIC-MRCC
   Dagmar Lenk            : GEPOL surface, SMD
   Dimitrios Liakos       : Extrapolation schemes; Compound Job, initial MDCI parallelization
   Dimitrios Manganas     : Further ROCIS development; embedding schemes
   Dimitrios Pantazis     : SARC Basis sets
   Anastasios Papadopoulos: AUTO-CI, single reference methods and gradients
   Taras Petrenko         : DFT Hessian,TD-DFT gradient, ASA, ECA, R-Raman, ABS, FL, XAS/XES, NRVS
   Peter Pinski           : DLPNO-MP2, DLPNO-MP2 Gradient
   Christoph Reimann      : Effective Core Potentials
   Marius Retegan         : Local ZFS, SOC
   Christoph Riplinger    : Optimizer, TS searches, QM/MM, DLPNO-CCSD(T), (RO)-DLPNO pert. Triples
   Tobias Risthaus        : Range-separated hybrids, TD-DFT gradient, RPA, STAB
   Michael Roemelt        : Original ROCIS implementation
   Masaaki Saitow         : Open-shell DLPNO-CCSD energy and density
   Barbara Sandhoefer     : DKH picture change effects
   Avijit Sen             : IP-ROCIS
   Kantharuban Sivalingam : CASSCF convergence, NEVPT2, FIC-MRCI
   Bernardo de Souza      : ESD, SOC TD-DFT
   Georgi Stoychev        : AutoAux, RI-MP2 NMR, DLPNO-MP2 response
   Willem Van den Heuvel  : Paramagnetic NMR
   Boris Wezisla          : Elementary symmetry handling
   Frank Wennmohs         : Technical directorship


 We gratefully acknowledge several colleagues who have allowed us to
 interface, adapt or use parts of their codes:
   Stefan Grimme, W. Hujo, H. Kruse, P. Pracht,  : VdW corrections, initial TS optimization,
                  C. Bannwarth, S. Ehlert          DFT functionals, gCP, sTDA/sTD-DF
   Ed Valeev, F. Pavosevic, A. Kumar             : LibInt (2-el integral package), F12 methods
   Garnet Chan, S. Sharma, J. Yang, R. Olivares  : DMRG
   Ulf Ekstrom                                   : XCFun DFT Library
   Mihaly Kallay                                 : mrcc  (arbitrary order and MRCC methods)
   Jiri Pittner, Ondrej Demel                    : Mk-CCSD
   Frank Weinhold                                : gennbo (NPA and NBO analysis)
   Christopher J. Cramer and Donald G. Truhlar   : smd solvation model
   Lars Goerigk                                  : TD-DFT with DH, B97 family of functionals
   V. Asgeirsson, H. Jonsson                     : NEB implementation
   FAccTs GmbH                                   : IRC, NEB, NEB-TS, DLPNO-Multilevel, CI-OPT
                                                   MM, QMMM, 2- and 3-layer-ONIOM, Crystal-QMMM,
                                                   LR-CPCM, SF, NACMEs, symmetry and pop. for TD-DFT,
                                                   nearIR, NL-DFT gradient (VV10), updates on ESD,
                                                   ML-optimized integration grids
   S Lehtola, MJT Oliveira, MAL Marques          : LibXC Library
   Liviu Ungur et al                             : ANISO software


 Your calculation uses the libint2 library for the computation of 2-el integrals
 For citations please refer to: http://libint.valeyev.net

 Your ORCA version has been built with support for libXC version: 5.1.0
 For citations please refer to: https://tddft.org/programs/libxc/

 This ORCA versions uses:
   CBLAS   interface :  Fast vector & matrix operations
   LAPACKE interface :  Fast linear algebra routines
   SCALAPACK package :  Parallel linear algebra routines
   Shared memory     :  Shared parallel matrices
   BLAS/LAPACK       :  OpenBLAS 0.3.19 NO_AFFINITY VORTEX SINGLE_THREADED
        Core in use  :  VORTEX
   Copyright (c) 2011-2014, The OpenBLAS Project


Your calculation utilizes the atom-pairwise dispersion correction
with the Becke-Johnson damping scheme (D3BJ)
Cite in your paper:
S.Grimme, S.Ehrlich, L.Goerigk, J Comput Chem, (2011), 32, 1456–1465 
S.Grimme, J.Antony, S.Ehrlich and H.Krieg, J.Chem.Phys., 132, (2010), 154104 
   

================================================================================

----- Orbital basis set information -----
Your calculation utilizes the basis: def2-TZVP
   F. Weigend and R. Ahlrichs, Phys. Chem. Chem. Phys. 7, 3297 (2005).

----- AuxJ basis set information -----
Your calculation utilizes the auxiliary basis: def2/J
   F. Weigend, Phys. Chem. Chem. Phys. 8, 1057 (2006).

================================================================================
                                        WARNINGS
                       Please study these warnings very carefully!
================================================================================


WARNING: Geometry Optimization
  ===> : Switching off AutoStart
         For restart on a previous wavefunction, please use MOREAD

INFO   : the flag for use of the SHARK integral package has been found!

================================================================================
                                       INPUT FILE
================================================================================
NAME = /Users/cxs454/Desktop/DecomPoly/S-S_Curve/PE_6.0.inp
|  1> ! B3LYP def2-TZVP D3BJ OPT FREQ def2/J 
|  2> %geom
|  3> POTENTIALS
|  4> {C 0 22 6.0}
|  5> end
|  6> end
|  7>  
|  8> *xyz 0 1 
|  9> C   -9.54005313500917 2.15300103565072 1.07625768728466
| 10> C   -7.8257639576155 1.9581128181021 0.68024192750625
| 11> H   -10.02919820079103 2.78156775507898 0.33623265571201
| 12> H   -9.51296250093993 2.63978810406591 2.04711833670386
| 13> H   -10.02551467581791 1.1821837623426 1.1383689125809
| 14> H   -7.44649082878658 2.97823401985789 0.76994383137665
| 15> C   -7.04374361388759 1.29765972642037 -0.64536381911627
| 16> H   -7.44399870553875 1.41748048579192 1.54891220143007
| 17> H   -7.38326588677909 1.83359562754358 -1.53407742944304
| 18> H   -7.38334197453706 0.26554809917138 -0.75362320240172
| 19> C   -5.35869019191888 1.26716979965464 -0.70517814289448
| 20> H   -5.02420162348648 2.30069894442407 -0.58962456804977
| 21> C   -4.50862412239981 0.62264130081591 -2.00458621174096
| 22> H   -5.02513903702245 0.73251418971166 0.18715806509053
| 23> H   -4.84211602328446 1.15733781515078 -2.89692038929259
| 24> H   -4.84319480624485 -0.41085778504199 -2.12017220697801
| 25> C   -2.82357373728093 0.59197377239865 -2.06437817679779
| 26> H   -2.48385543449881 1.62405922450156 -1.9562441743838
| 27> C   -2.0416468411115 -0.06876392070237 -3.38989883269421
| 28> H   -2.48412422872672 0.05610170929889 -1.17559913882339
| 29> H   -2.42326917138751 0.47186271339514 -4.25863572137299
| 30> H   -2.42113671754502 -1.08881196946971 -3.47951371867492
| 31> C   -0.32739279517647 -0.26408836258693 -3.78585320005539
| 32> H   0.15829338099533 0.7066112408467 -3.84804687005088
| 33> H   -0.35457082008802 -0.7509654516313 -4.75666641059781
| 34> H   0.16158564888953 -0.89269465479122 -3.04575140431689
| 35> *
| 36> 
| 37>                          ****END OF INPUT****
================================================================================

                       *****************************
                       * Geometry Optimization Run *
                       *****************************

Geometry optimization settings:
Update method            Update   .... BFGS
Choice of coordinates    CoordSys .... Z-matrix Internals
Initial Hessian          InHess   .... Almoef's Model

Convergence Tolerances:
Energy Change            TolE     ....  5.0000e-06 Eh
Max. Gradient            TolMAXG  ....  3.0000e-04 Eh/bohr
RMS Gradient             TolRMSG  ....  1.0000e-04 Eh/bohr
Max. Displacement        TolMAXD  ....  4.0000e-03 bohr
RMS Displacement         TolRMSD  ....  2.0000e-03 bohr
Strict Convergence                ....  False
------------------------------------------------------------------------------
                        ORCA OPTIMIZATION COORDINATE SETUP
------------------------------------------------------------------------------

The optimization will be done in new redundant internal coordinates
Making redundant internal coordinates   ...  (new redundants) done
Evaluating the initial hessian          ...  (Almloef) done
Evaluating the coordinates              ...  done
Calculating the B-matrix                .... done
Calculating the G-matrix                .... done
Diagonalizing the G-matrix              .... done
Small eigenvalue found = 4.247e-03
Small eigenvalue found = 2.595e-02
Small eigenvalue found = 2.773e-02
The first mode is                       ....   64
The number of degrees of freedom        ....   72

    -----------------------------------------------------------------
                    Redundant Internal Coordinates


    -----------------------------------------------------------------
         Definition                    Initial Value    Approx d2E/dq
    -----------------------------------------------------------------
      1. B(C   1,C   0)                  1.7702         0.154582   
      2. B(H   2,C   0)                  1.0872         0.363828   
      3. B(H   3,C   0)                  1.0864         0.364893   
      4. B(H   4,C   0)                  1.0872         0.363815   
      5. B(H   5,C   1)                  1.0920         0.357417   
      6. B(C   6,C   1)                  1.6748         0.219454   
      7. B(H   7,C   1)                  1.0921         0.357373   
      8. B(H   8,C   6)                  1.0919         0.357554   
      9. B(H   9,C   6)                  1.0919         0.357562   
     10. B(C  10,C   6)                  1.6864         0.210313   
     11. B(H  11,C  10)                  1.0924         0.356891   
     12. B(C  12,C  10)                  1.6812         0.214348   
     13. B(H  13,C  10)                  1.0924         0.356916   
     14. B(H  14,C  12)                  1.0924         0.356915   
     15. B(H  15,C  12)                  1.0924         0.356891   
     16. B(C  16,C  12)                  1.6864         0.210314   
     17. B(H  17,C  16)                  1.0919         0.357561   
     18. B(C  18,C  16)                  1.6748         0.219453   
     19. B(H  19,C  16)                  1.0919         0.357555   
     20. B(H  20,C  18)                  1.0921         0.357372   
     21. B(H  21,C  18)                  1.0920         0.357417   
     22. B(C  22,C  18)                  1.7702         0.154582   
     23. B(H  23,C  22)                  1.0872         0.363815   
     24. B(H  24,C  22)                  1.0864         0.364893   
     25. B(H  25,C  22)                  1.0872         0.363828   
     26. A(C   1,C   0,H   4)          110.2973         0.282165   
     27. A(C   1,C   0,H   2)          110.3089         0.282167   
     28. A(H   2,C   0,H   3)          111.1276         0.291917   
     29. A(H   2,C   0,H   4)          110.7475         0.291781   
     30. A(C   1,C   0,H   3)          103.0089         0.282295   
     31. A(H   3,C   0,H   4)          111.1117         0.291915   
     32. A(C   0,C   1,H   7)          102.4209         0.281386   
     33. A(C   0,C   1,H   5)          102.4225         0.281391   
     34. A(C   6,C   1,H   7)          105.7317         0.297266   
     35. A(H   5,C   1,H   7)          106.0038         0.290152   
     36. A(C   0,C   1,C   6)          132.2733         0.288195   
     37. A(H   5,C   1,C   6)          105.7370         0.297272   
     38. A(C   1,C   6,H   9)          107.8182         0.297291   
     39. A(H   8,C   6,H   9)          106.6504         0.290193   
     40. A(C   1,C   6,H   8)          107.7856         0.297290   
     41. A(H   8,C   6,C  10)          106.8997         0.295293   
     42. A(H   9,C   6,C  10)          106.8673         0.295294   
     43. A(C   1,C   6,C  10)          120.1168         0.302571   
     44. A(C  12,C  10,H  13)          106.8174         0.296099   
     45. A(H  11,C  10,H  13)          106.4478         0.290026   
     46. A(C   6,C  10,H  13)          106.5569         0.295210   
     47. A(C   6,C  10,C  12)          122.6544         0.301436   
     48. A(C   6,C  10,H  11)          106.5640         0.295207   
     49. A(H  11,C  10,C  12)          106.8362         0.296096   
     50. A(H  15,C  12,C  16)          106.5626         0.295207   
     51. A(H  14,C  12,C  16)          106.5574         0.295210   
     52. A(C  10,C  12,C  16)          122.6564         0.301436   
     53. A(H  14,C  12,H  15)          106.4473         0.290026   
     54. A(C  10,C  12,H  15)          106.8347         0.296096   
     55. A(C  10,C  12,H  14)          106.8181         0.296099   
     56. A(C  12,C  16,H  17)          106.8682         0.295295   
     57. A(C  18,C  16,H  19)          107.7852         0.297290   
     58. A(H  17,C  16,H  19)          106.6508         0.290193   
     59. A(C  12,C  16,H  19)          106.8992         0.295294   
     60. A(H  17,C  16,C  18)          107.8194         0.297290   
     61. A(C  12,C  16,C  18)          120.1152         0.302571   
     62. A(H  21,C  18,C  22)          102.4215         0.281391   
     63. A(H  20,C  18,C  22)          102.4210         0.281385   
     64. A(C  16,C  18,C  22)          132.2743         0.288195   
     65. A(H  20,C  18,H  21)          106.0036         0.290152   
     66. A(C  16,C  18,H  21)          105.7365         0.297271   
     67. A(C  16,C  18,H  20)          105.7320         0.297265   
     68. A(H  24,C  22,H  25)          111.1277         0.291917   
     69. A(H  23,C  22,H  25)          110.7476         0.291781   
     70. A(C  18,C  22,H  25)          110.3087         0.282167   
     71. A(H  23,C  22,H  24)          111.1117         0.291915   
     72. A(C  18,C  22,H  24)          103.0090         0.282295   
     73. A(C  18,C  22,H  23)          110.2972         0.282165   
     74. D(H   5,C   1,C   0,H   3)    -54.7582         0.002976   
     75. D(H   7,C   1,C   0,H   4)    -63.6871         0.002976   
     76. D(H   7,C   1,C   0,H   3)     54.9721         0.002976   
     77. D(H   5,C   1,C   0,H   2)     63.9249         0.002976   
     78. D(C   6,C   1,C   0,H   2)    -61.2153         0.002976   
     79. D(H   5,C   1,C   0,H   4)   -173.4173         0.002976   
     80. D(H   7,C   1,C   0,H   2)    173.6552         0.002976   
     81. D(C   6,C   1,C   0,H   3)   -179.8984         0.002976   
     82. D(C   6,C   1,C   0,H   4)     61.4425         0.002976   
     83. D(H   8,C   6,C   1,H   5)    -66.4295         0.004579   
     84. D(H   8,C   6,C   1,H   7)   -178.5750         0.004579   
     85. D(H   8,C   6,C   1,C   0)     57.5025         0.004579   
     86. D(H   9,C   6,C   1,H   7)     66.6422         0.004579   
     87. D(H   9,C   6,C   1,H   5)    178.7877         0.004579   
     88. D(C  10,C   6,C   1,H   7)    -55.9586         0.004579   
     89. D(C  10,C   6,C   1,H   5)     56.1869         0.004579   
     90. D(C  10,C   6,C   1,C   0)   -179.8811         0.004579   
     91. D(H   9,C   6,C   1,C   0)    -57.2803         0.004579   
     92. D(H  13,C  10,C   6,C   1)     56.8050         0.004314   
     93. D(C  12,C  10,C   6,H   9)     57.0443         0.004314   
     94. D(H  13,C  10,C   6,H   8)    179.8502         0.004314   
     95. D(C  12,C  10,C   6,H   8)    -56.8495         0.004314   
     96. D(H  11,C  10,C   6,H   8)     66.4843         0.004314   
     97. D(C  12,C  10,C   6,C   1)   -179.8947         0.004314   
     98. D(H  13,C  10,C   6,H   9)    -66.2560         0.004314   
     99. D(H  11,C  10,C   6,H   9)   -179.6219         0.004314   
    100. D(H  11,C  10,C   6,C   1)    -56.5609         0.004314   
    101. D(H  14,C  12,C  10,H  13)   -179.9961         0.004430   
    102. D(H  14,C  12,C  10,H  11)    -66.3866         0.004430   
    103. D(H  15,C  12,C  10,C   6)    -56.7858         0.004430   
    104. D(H  14,C  12,C  10,C   6)     56.8228         0.004430   
    105. D(C  16,C  12,C  10,H  13)    -56.8121         0.004430   
    106. D(C  16,C  12,C  10,H  11)     56.7975         0.004430   
    107. D(C  16,C  12,C  10,C   6)   -179.9932         0.004430   
    108. D(H  15,C  12,C  10,H  13)     66.3953         0.004430   
    109. D(H  15,C  12,C  10,H  11)   -179.9951         0.004430   
    110. D(H  19,C  16,C  12,H  15)    -66.4921         0.004314   
    111. D(H  19,C  16,C  12,H  14)   -179.8570         0.004314   
    112. D(H  19,C  16,C  12,C  10)     56.8397         0.004314   
    113. D(C  18,C  16,C  12,H  15)     56.5510         0.004314   
    114. D(C  18,C  16,C  12,H  14)    -56.8140         0.004314   
    115. D(C  18,C  16,C  12,C  10)    179.8827         0.004314   
    116. D(H  17,C  16,C  12,H  15)    179.6134         0.004314   
    117. D(H  17,C  16,C  12,H  14)     66.2485         0.004314   
    118. D(H  17,C  16,C  12,C  10)    -57.0548         0.004314   
    119. D(C  22,C  18,C  16,H  19)    -57.4963         0.004579   
    120. D(C  22,C  18,C  16,H  17)     57.2874         0.004579   
    121. D(C  22,C  18,C  16,C  12)    179.8895         0.004579   
    122. D(H  21,C  18,C  16,H  19)     66.4344         0.004579   
    123. D(H  21,C  18,C  16,H  17)   -178.7819         0.004579   
    124. D(H  21,C  18,C  16,C  12)    -56.1798         0.004579   
    125. D(H  20,C  18,C  16,H  19)    178.5795         0.004579   
    126. D(H  20,C  18,C  16,H  17)    -66.6367         0.004579   
    127. D(H  20,C  18,C  16,C  12)     55.9653         0.004579   
    128. D(H  25,C  22,C  18,H  20)   -173.6547         0.002976   
    129. D(H  25,C  22,C  18,C  16)     61.2141         0.002976   
    130. D(H  24,C  22,C  18,H  21)     54.7582         0.002976   
    131. D(H  24,C  22,C  18,H  20)    -54.9716         0.002976   
    132. D(H  24,C  22,C  18,C  16)    179.8972         0.002976   
    133. D(H  23,C  22,C  18,H  21)    173.4174         0.002976   
    134. D(H  23,C  22,C  18,H  20)     63.6876         0.002976   
    135. D(H  25,C  22,C  18,H  21)    -63.9250         0.002976   
    136. D(H  23,C  22,C  18,C  16)    -61.4435         0.002976   
    -----------------------------------------------------------------

Number of atoms                         .... 26
Number of degrees of freedom            .... 136

         *************************************************************
         *                GEOMETRY OPTIMIZATION CYCLE   1            *
         *************************************************************
---------------------------------
CARTESIAN COORDINATES (ANGSTROEM)
---------------------------------
  C     -9.540053    2.153001    1.076258
  C     -7.825764    1.958113    0.680242
  H    -10.029198    2.781568    0.336233
  H     -9.512963    2.639788    2.047118
  H    -10.025515    1.182184    1.138369
  H     -7.446491    2.978234    0.769944
  C     -7.043744    1.297660   -0.645364
  H     -7.443999    1.417480    1.548912
  H     -7.383266    1.833596   -1.534077
  H     -7.383342    0.265548   -0.753623
  C     -5.358690    1.267170   -0.705178
  H     -5.024202    2.300699   -0.589625
  C     -4.508624    0.622641   -2.004586
  H     -5.025139    0.732514    0.187158
  H     -4.842116    1.157338   -2.896920
  H     -4.843195   -0.410858   -2.120172
  C     -2.823574    0.591974   -2.064378
  H     -2.483855    1.624059   -1.956244
  C     -2.041647   -0.068764   -3.389899
  H     -2.484124    0.056102   -1.175599
  H     -2.423269    0.471863   -4.258636
  H     -2.421137   -1.088812   -3.479514
  C     -0.327393   -0.264088   -3.785853
  H      0.158293    0.706611   -3.848047
  H     -0.354571   -0.750965   -4.756666
  H      0.161586   -0.892695   -3.045751

----------------------------
CARTESIAN COORDINATES (A.U.)
----------------------------
  NO LB      ZA    FRAG     MASS         X           Y           Z
   0 C     6.0000    0    12.011  -18.028088    4.068582    2.033832
   1 C     6.0000    0    12.011  -14.788551    3.700297    1.285471
   2 H     1.0000    0     1.008  -18.952438    5.256401    0.635388
   3 H     1.0000    0     1.008  -17.976894    4.988477    3.868493
   4 H     1.0000    0     1.008  -18.945477    2.234004    2.151205
   5 H     1.0000    0     1.008  -14.071828    5.628047    1.454983
   6 C     6.0000    0    12.011  -13.310746    2.452221   -1.219561
   7 H     1.0000    0     1.008  -14.067119    2.678650    2.927020
   8 H     1.0000    0     1.008  -13.952350    3.464994   -2.898986
   9 H     1.0000    0     1.008  -13.952494    0.501813   -1.424141
  10 C     6.0000    0    12.011  -10.126457    2.394604   -1.332594
  11 H     1.0000    0     1.008   -9.494365    4.347691   -1.114229
  12 C     6.0000    0    12.011   -8.520065    1.176622   -3.788119
  13 H     1.0000    0     1.008   -9.496137    1.384251    0.353677
  14 H     1.0000    0     1.008   -9.150273    2.187052   -5.474386
  15 H     1.0000    0     1.008   -9.152312   -0.776409   -4.006545
  16 C     6.0000    0    12.011   -5.335781    1.118668   -3.901109
  17 H     1.0000    0     1.008   -4.693807    3.069027   -3.696766
  18 C     6.0000    0    12.011   -3.858153   -0.129945   -6.405980
  19 H     1.0000    0     1.008   -4.694314    0.106017   -2.221560
  20 H     1.0000    0     1.008   -4.579315    0.891691   -8.047655
  21 H     1.0000    0     1.008   -4.575285   -2.057556   -6.575328
  22 C     6.0000    0    12.011   -0.618683   -0.499055   -7.154226
  23 H     1.0000    0     1.008    0.299131    1.335302   -7.271755
  24 H     1.0000    0     1.008   -0.670042   -1.419119   -8.988797
  25 H     1.0000    0     1.008    0.305353   -1.686948   -5.755636

--------------------------------
INTERNAL COORDINATES (ANGSTROEM)
--------------------------------
 C      0   0   0     0.000000000000     0.00000000     0.00000000
 C      1   0   0     1.770196961657     0.00000000     0.00000000
 H      1   2   0     1.087196423608   110.30886055     0.00000000
 H      1   2   3     1.086400457024   103.00889801   241.31692358
 H      1   2   3     1.087206001669   110.29733763   122.65776416
 H      2   1   3     1.092035623998   102.42252124    63.92490337
 C      2   1   3     1.674808854704   132.27325350   298.78469453
 H      2   1   3     1.092069627465   102.42094295   173.65517219
 H      7   2   1     1.091931566117   107.78557437    57.50250512
 H      7   2   1     1.091925616390   107.81817653   302.71970856
 C      7   2   1     1.686390353344   120.11678527   180.11887226
 H     11   7   2     1.092436599606   106.56400355   303.43913016
 C     11   7   2     1.681217010902   122.65435035   180.10533335
 H     11   7   2     1.092417915570   106.55688147    56.80504486
 H     13  11   7     1.092418186788   106.81810142    56.82275353
 H     13  11   7     1.092436737414   106.83465275   303.21419874
 C     13  11   7     1.686389746403   122.65635184   180.00682220
 H     17  13  11     1.091925761289   106.86822382   302.94517225
 C     17  13  11     1.674810132297   120.11516449   179.88273790
 H     17  13  11     1.091930865582   106.89923330    56.83968251
 H     19  17  13     1.092069843102   105.73204503    55.96533927
 H     19  17  13     1.092035446265   105.73651448   303.82017273
 C     19  17  13     1.770197286359   132.27427387   179.88947331
 H     23  19  17     1.087205976077   110.29721832   298.55647689
 H     23  19  17     1.086400586634   103.00897613   179.89723945
 H     23  19  17     1.087196604766   110.30866730    61.21410957

---------------------------
INTERNAL COORDINATES (A.U.)
---------------------------
 C      0   0   0     0.000000000000     0.00000000     0.00000000
 C      1   0   0     3.345187460632     0.00000000     0.00000000
 H      1   2   0     2.054503494397   110.30886055     0.00000000
 H      1   2   3     2.052999335542   103.00889801   241.31692358
 H      1   2   3     2.054521594310   110.29733763   122.65776416
 H      2   1   3     2.063648257843   102.42252124    63.92490337
 C      2   1   3     3.164930062057   132.27325350   298.78469453
 H      2   1   3     2.063712515082   102.42094295   173.65517219
 H      7   2   1     2.063451616944   107.78557437    57.50250512
 H      7   2   1     2.063440373589   107.81817653   302.71970856
 C      7   2   1     3.186815922707   120.11678527   180.11887226
 H     11   7   2     2.064405991928   106.56400355   303.43913016
 C     11   7   2     3.177039722294   122.65435035   180.10533335
 H     11   7   2     2.064370684216   106.55688147    56.80504486
 H     13  11   7     2.064371196743   106.81810142    56.82275353
 H     13  11   7     2.064406252348   106.83465275   303.21419874
 C     13  11   7     3.186814775755   122.65635184   180.00682220
 H     17  13  11     2.063440647409   106.86822382   302.94517225
 C     17  13  11     3.164932476358   120.11516449   179.88273790
 H     17  13  11     2.063450293126   106.89923330    56.83968251
 H     19  17  13     2.063712922577   105.73204503    55.96533927
 H     19  17  13     2.063647921975   105.73651448   303.82017273
 C     19  17  13     3.345188074230   132.27427387   179.88947331
 H     23  19  17     2.054521545949   110.29721832   298.55647689
 H     23  19  17     2.052999580469   103.00897613   179.89723945
 H     23  19  17     2.054503836737   110.30866730    61.21410957

---------------------
BASIS SET INFORMATION
---------------------
There are 2 groups of distinct atoms

 Group   1 Type C   : 11s6p2d1f contracted to 5s3p2d1f pattern {62111/411/11/1}
 Group   2 Type H   : 5s1p contracted to 3s1p pattern {311/1}

Atom   0C    basis set group =>   1
Atom   1C    basis set group =>   1
Atom   2H    basis set group =>   2
Atom   3H    basis set group =>   2
Atom   4H    basis set group =>   2
Atom   5H    basis set group =>   2
Atom   6C    basis set group =>   1
Atom   7H    basis set group =>   2
Atom   8H    basis set group =>   2
Atom   9H    basis set group =>   2
Atom  10C    basis set group =>   1
Atom  11H    basis set group =>   2
Atom  12C    basis set group =>   1
Atom  13H    basis set group =>   2
Atom  14H    basis set group =>   2
Atom  15H    basis set group =>   2
Atom  16C    basis set group =>   1
Atom  17H    basis set group =>   2
Atom  18C    basis set group =>   1
Atom  19H    basis set group =>   2
Atom  20H    basis set group =>   2
Atom  21H    basis set group =>   2
Atom  22C    basis set group =>   1
Atom  23H    basis set group =>   2
Atom  24H    basis set group =>   2
Atom  25H    basis set group =>   2
---------------------------------
AUXILIARY/J BASIS SET INFORMATION
---------------------------------
There are 2 groups of distinct atoms

 Group   1 Type C   : 12s5p4d2f1g contracted to 6s4p3d1f1g pattern {711111/2111/211/2/1}
 Group   2 Type H   : 5s2p1d contracted to 3s1p1d pattern {311/2/1}

Atom   0C    basis set group =>   1
Atom   1C    basis set group =>   1
Atom   2H    basis set group =>   2
Atom   3H    basis set group =>   2
Atom   4H    basis set group =>   2
Atom   5H    basis set group =>   2
Atom   6C    basis set group =>   1
Atom   7H    basis set group =>   2
Atom   8H    basis set group =>   2
Atom   9H    basis set group =>   2
Atom  10C    basis set group =>   1
Atom  11H    basis set group =>   2
Atom  12C    basis set group =>   1
Atom  13H    basis set group =>   2
Atom  14H    basis set group =>   2
Atom  15H    basis set group =>   2
Atom  16C    basis set group =>   1
Atom  17H    basis set group =>   2
Atom  18C    basis set group =>   1
Atom  19H    basis set group =>   2
Atom  20H    basis set group =>   2
Atom  21H    basis set group =>   2
Atom  22C    basis set group =>   1
Atom  23H    basis set group =>   2
Atom  24H    basis set group =>   2
Atom  25H    basis set group =>   2
------------------------------------------------------------------------------
                           ORCA GTO INTEGRAL CALCULATION
                           -- RI-GTO INTEGRALS CHOSEN --
------------------------------------------------------------------------------
------------------------------------------------------------------------------
                   ___                                                        
                  /   \      - P O W E R E D   B Y -                         
                 /     \                                                     
                 |  |  |   _    _      __       _____    __    __             
                 |  |  |  | |  | |    /  \     |  _  \  |  |  /  |          
                  \  \/   | |  | |   /    \    | | | |  |  | /  /          
                 / \  \   | |__| |  /  /\  \   | |_| |  |  |/  /          
                |  |  |   |  __  | /  /__\  \  |    /   |      \           
                |  |  |   | |  | | |   __   |  |    \   |  |\   \          
                \     /   | |  | | |  |  |  |  | |\  \  |  | \   \       
                 \___/    |_|  |_| |__|  |__|  |_| \__\ |__|  \__/        
                                                                              
                      - O R C A' S   B I G   F R I E N D -                    
                                      &                                       
                       - I N T E G R A L  F E E D E R -                       
                                                                              
 v1 FN, 2020, v2 2021                                                         
------------------------------------------------------------------------------


Reading SHARK input file /Users/cxs454/Desktop/DecomPoly/S-S_Curve/PE_6.0.SHARKINP.tmp ... ok
----------------------
SHARK INTEGRAL PACKAGE
----------------------

Number of atoms                             ...     26
Number of basis functions                   ...    356
Number of shells                            ...    160
Maximum angular momentum                    ...      3
Integral batch strategy                     ... SHARK/LIBINT Hybrid
RI-J (if used) integral strategy            ... SPLIT-RIJ (Revised 2003 algorithm where possible)
Printlevel                                  ...      1
Contraction scheme used                     ... SEGMENTED contraction
Coulomb Range Separation                    ... NOT USED
Exchange Range Separation                   ... NOT USED
Finite Nucleus Model                        ... NOT USED
Auxiliary Coulomb fitting basis             ... AVAILABLE
   # of basis functions in Aux-J            ...    590
   # of shells in Aux-J                     ...    210
   Maximum angular momentum in Aux-J        ...      4
Auxiliary J/K fitting basis                 ... NOT available
Auxiliary Correlation fitting basis         ... NOT available
Auxiliary 'external' fitting basis          ... NOT available
Integral threshold                          ...     2.500000e-11
Primitive cut-off                           ...     2.500000e-12
Primitive pair pre-selection threshold      ...     2.500000e-12

Calculating pre-screening integrals         ... done (  0.0 sec) Dimension = 160
Organizing shell pair data                  ... done (  0.0 sec)
Shell pair information
Total number of shell pairs                 ...     12880
Shell pairs after pre-screening             ...      9622
Total number of primitive shell pairs       ...     36276
Primitive shell pairs kept                  ...     20057
          la=0 lb=0:   3345 shell pairs
          la=1 lb=0:   2970 shell pairs
          la=1 lb=1:    677 shell pairs
          la=2 lb=0:   1118 shell pairs
          la=2 lb=1:    500 shell pairs
          la=2 lb=2:    102 shell pairs
          la=3 lb=0:    540 shell pairs
          la=3 lb=1:    248 shell pairs
          la=3 lb=2:     96 shell pairs
          la=3 lb=3:     26 shell pairs

Calculating one electron integrals          ... done (  0.0 sec)
Calculating RI/J V-Matrix + Cholesky decomp.... done (  0.0 sec)
Calculating Nuclear repulsion               ... done (  0.0 sec) ENN=    338.212122386956 Eh

SHARK setup successfully completed in   0.2 seconds

Maximum memory used throughout the entire GTOINT-calculation: 85.8 MB
-------------------------------------------------------------------------------
                                 ORCA SCF
-------------------------------------------------------------------------------

------------
SCF SETTINGS
------------
Hamiltonian:
 Density Functional     Method          .... DFT(GTOs)
 Exchange Functional    Exchange        .... B88
   X-Alpha parameter    XAlpha          ....  0.666667
   Becke's b parameter  XBeta           ....  0.004200
 Correlation Functional Correlation     .... LYP
 LDA part of GGA corr.  LDAOpt          .... VWN-5
 Gradients option       PostSCFGGA      .... off
 Hybrid DFT is turned on
   Fraction HF Exchange ScalHFX         ....  0.200000
   Scaling of DF-GGA-X  ScalDFX         ....  0.720000
   Scaling of DF-GGA-C  ScalDFC         ....  0.810000
   Scaling of DF-LDA-C  ScalLDAC        ....  1.000000
   Perturbative correction              ....  0.000000
   Density functional embedding theory  .... OFF
   NL short-range parameter             ....  4.800000
 RI-approximation to the Coulomb term is turned on
   Number of AuxJ basis functions       .... 590
   RIJ-COSX (HFX calculated with COS-X)).... on


General Settings:
 Integral files         IntName         .... /Users/cxs454/Desktop/DecomPoly/S-S_Curve/PE_6.0
 Hartree-Fock type      HFTyp           .... RHF
 Total Charge           Charge          ....    0
 Multiplicity           Mult            ....    1
 Number of Electrons    NEL             ....   66
 Basis Dimension        Dim             ....  356
 Nuclear Repulsion      ENuc            ....    338.2121223870 Eh

Convergence Acceleration:
 DIIS                   CNVDIIS         .... on
   Start iteration      DIISMaxIt       ....    12
   Startup error        DIISStart       ....  0.200000
   # of expansion vecs  DIISMaxEq       ....     5
   Bias factor          DIISBfac        ....   1.050
   Max. coefficient     DIISMaxC        ....  10.000
 Trust-Rad. Augm. Hess. CNVTRAH         .... auto
   Auto Start mean grad. ratio tolernc. ....  1.125000
   Auto Start start iteration           ....    20
   Auto Start num. interpolation iter.  ....    10
   Max. Number of Micro iterations      ....    16
   Max. Number of Macro iterations      .... Maxiter - #DIIS iter
   Number of Davidson start vectors     ....     2
   Converg. threshold I  (grad. norm)   ....   1.000e-05
   Converg. threshold II (energy diff.) ....   1.000e-08
   Grad. Scal. Fac. for Micro threshold ....   0.100
   Minimum threshold for Micro iter.    ....   0.010
   NR start threshold (gradient norm)   ....   0.001
   Initial trust radius                 ....   0.400
   Minimum AH scaling param. (alpha)    ....   1.000
   Maximum AH scaling param. (alpha)    .... 1000.000
   Orbital update algorithm             .... Taylor
   White noise on init. David. guess    .... on
   Maximum white noise                  ....   0.010
   Quad. conv. algorithm                .... NR
 SOSCF                  CNVSOSCF        .... on
   Start iteration      SOSCFMaxIt      ....   150
   Startup grad/error   SOSCFStart      ....  0.003300
 Level Shifting         CNVShift        .... on
   Level shift para.    LevelShift      ....    0.2500
   Turn off err/grad.   ShiftErr        ....    0.0010
 Zerner damping         CNVZerner       .... off
 Static damping         CNVDamp         .... on
   Fraction old density DampFac         ....    0.7000
   Max. Damping (<1)    DampMax         ....    0.9800
   Min. Damping (>=0)   DampMin         ....    0.0000
   Turn off err/grad.   DampErr         ....    0.1000
 Fernandez-Rico         CNVRico         .... off

SCF Procedure:
 Maximum # iterations   MaxIter         ....   125
 SCF integral mode      SCFMode         .... Direct
   Integral package                     .... SHARK and LIBINT hybrid scheme
 Reset frequency        DirectResetFreq ....    20
 Integral Threshold     Thresh          ....  2.500e-11 Eh
 Primitive CutOff       TCut            ....  2.500e-12 Eh

Convergence Tolerance:
 Convergence Check Mode ConvCheckMode   .... Total+1el-Energy
 Convergence forced     ConvForced      .... 0
 Energy Change          TolE            ....  1.000e-08 Eh
 1-El. energy change                    ....  1.000e-05 Eh
 Orbital Gradient       TolG            ....  1.000e-05
 Orbital Rotation angle TolX            ....  1.000e-05
 DIIS Error             TolErr          ....  5.000e-07


Diagonalization of the overlap matrix:
Smallest eigenvalue                        ... 2.618e-04
Time for diagonalization                   ...    0.011 sec
Threshold for overlap eigenvalues          ... 1.000e-08
Number of eigenvalues below threshold      ... 0
Time for construction of square roots      ...    0.005 sec
Total time needed                          ...    0.017 sec

Time for model grid setup =    0.184 sec

------------------------------
INITIAL GUESS: MODEL POTENTIAL
------------------------------
Loading Hartree-Fock densities                     ... done
Calculating cut-offs                               ... done
Initializing the effective Hamiltonian             ... done
Setting up the integral package (SHARK)            ... done
Starting the Coulomb interaction                   ... done (   0.2 sec)
Reading the grid                                   ... done
Mapping shells                                     ... done
Starting the XC term evaluation                    ... done (   0.3 sec)
  promolecular density results
     # of electrons  =     65.991024297
     EX              =    -46.225692063
     EC              =     -2.052484871
     EX+EC           =    -48.278176934
Transforming the Hamiltonian                       ... done (   0.0 sec)
Diagonalizing the Hamiltonian                      ... done (   0.0 sec)
Back transforming the eigenvectors                 ... done (   0.0 sec)
Now organizing SCF variables                       ... done
                      ------------------
                      INITIAL GUESS DONE (   0.7 sec)
                      ------------------
-------------------
DFT GRID GENERATION
-------------------

General Integration Accuracy     IntAcc      ... 4.388
Radial Grid Type                 RadialGrid  ... OptM3 with GC (2021)
Angular Grid (max. ang.)         AngularGrid ... 4 (Lebedev-302)
Angular grid pruning method      GridPruning ... 4 (adaptive)
Weight generation scheme         WeightScheme... Becke
Basis function cutoff            BFCut       ... 1.0000e-11
Integration weight cutoff        WCut        ... 1.0000e-14
Angular grids for H and He will be reduced by one unit
Partially contracted basis set               ... off
Rotationally invariant grid construction     ... off

Total number of grid points                  ...   106338
Total number of batches                      ...     1674
Average number of points per batch           ...       63
Average number of grid points per atom       ...     4090
Time for grid setup =    0.738 sec

--------------------
COSX GRID GENERATION
--------------------

GRIDX 1
-------
General Integration Accuracy     IntAcc      ... 3.816
Radial Grid Type                 RadialGrid  ... OptM3 with GC (2021)
Angular Grid (max. ang.)         AngularGrid ... 1 (Lebedev-50)
Angular grid pruning method      GridPruning ... 4 (adaptive)
Weight generation scheme         WeightScheme... Becke
Basis function cutoff            BFCut       ... 1.0000e-11
Integration weight cutoff        WCut        ... 1.0000e-14
Angular grids for H and He will be reduced by one unit
Partially contracted basis set               ... on
Rotationally invariant grid construction     ... off

Total number of grid points                  ...    13692
Total number of batches                      ...      232
Average number of points per batch           ...       59
Average number of grid points per atom       ...      527
UseSFitting                                  ... on

GRIDX 2
-------
General Integration Accuracy     IntAcc      ... 4.020
Radial Grid Type                 RadialGrid  ... OptM3 with GC (2021)
Angular Grid (max. ang.)         AngularGrid ... 2 (Lebedev-110)
Angular grid pruning method      GridPruning ... 4 (adaptive)
Weight generation scheme         WeightScheme... Becke
Basis function cutoff            BFCut       ... 1.0000e-11
Integration weight cutoff        WCut        ... 1.0000e-14
Angular grids for H and He will be reduced by one unit
Partially contracted basis set               ... on
Rotationally invariant grid construction     ... off

Total number of grid points                  ...    28164
Total number of batches                      ...      452
Average number of points per batch           ...       62
Average number of grid points per atom       ...     1083
UseSFitting                                  ... on

GRIDX 3
-------
General Integration Accuracy     IntAcc      ... 4.338
Radial Grid Type                 RadialGrid  ... OptM3 with GC (2021)
Angular Grid (max. ang.)         AngularGrid ... 3 (Lebedev-194)
Angular grid pruning method      GridPruning ... 4 (adaptive)
Weight generation scheme         WeightScheme... Becke
Basis function cutoff            BFCut       ... 1.0000e-11
Integration weight cutoff        WCut        ... 1.0000e-14
Angular grids for H and He will be reduced by one unit
Partially contracted basis set               ... on
Rotationally invariant grid construction     ... off

Total number of grid points                  ...    61236
Total number of batches                      ...      970
Average number of points per batch           ...       63
Average number of grid points per atom       ...     2355
UseSFitting                                  ... on

Time for X-Grid setup             =    0.984 sec

--------------
SCF ITERATIONS
--------------
ITER       Energy         Delta-E        Max-DP      RMS-DP      [F,P]     Damp
               ***  Starting incremental Fock matrix formation  ***
  0   -315.2141434823   0.000000000000 0.03510028  0.00067937  0.1750277 0.7000
  1   -315.3281616429  -0.114018160685 0.02061842  0.00053012  0.0928343 0.7000
                               ***Turning on DIIS***
  2   -315.3784666947  -0.050305051716 0.03072854  0.00098910  0.0359940 0.0000
  3   -315.4476830918  -0.069216397153 0.01565433  0.00035755  0.0512793 0.0000
  4   -315.4676588510  -0.019975759145 0.00333615  0.00010395  0.0084061 0.0000
                      *** Initiating the SOSCF procedure ***
                           *** Shutting down DIIS ***
                      *** Re-Reading the Fockian *** 
                      *** Removing any level shift *** 
ITER      Energy       Delta-E        Grad      Rot      Max-DP    RMS-DP
  5   -315.46845358  -0.0007947330  0.000752  0.000752  0.001764  0.000045
               *** Restarting incremental Fock matrix formation ***
  6   -315.46849541  -0.0000418280  0.000405  0.001250  0.001485  0.000038
  7   -315.46849690  -0.0000014852  0.000293  0.000237  0.000279  0.000007
  8   -315.46850081  -0.0000039105  0.000031  0.000083  0.000104  0.000003
  9   -315.46850083  -0.0000000210  0.000032  0.000027  0.000046  0.000001
 10   -315.46850088  -0.0000000558  0.000008  0.000012  0.000014  0.000000
                 **** Energy Check signals convergence ****
              ***Rediagonalizing the Fockian in SOSCF/NRSCF***

               *****************************************************
               *                     SUCCESS                       *
               *           SCF CONVERGED AFTER  11 CYCLES          *
               *****************************************************

Old exchange energy                            =     -9.498519850 Eh
New exchange energy                            =     -9.498516279 Eh
Exchange energy change after final integration =      0.000003571 Eh
Total energy after final integration           =   -315.468497316 Eh
Final COS-X integration done in                =    16.948 sec

----------------
TOTAL SCF ENERGY
----------------

Total Energy       :         -316.94019604 Eh           -8624.38119 eV
SCF Energy         :         -315.46849732 Eh           -8584.33423 eV
External Potential :           -1.47169872 Eh             -40.04696 eV

Components:
Nuclear Repulsion  :          338.21212239 Eh            9203.21973 eV
External Potential :           -1.47169872 Eh             -40.04696 eV
Electronic Energy  :         -653.68061970 Eh          -17787.55396 eV
One Electron Energy:        -1092.60358834 Eh          -29731.25515 eV
Two Electron Energy:          438.92296863 Eh           11943.70118 eV
Max COSX asymmetry :            0.00000046 Eh               0.00001 eV

Virial components:
Potential Energy   :         -627.99552647 Eh          -17088.62704 eV
Kinetic Energy     :          312.52702916 Eh            8504.29281 eV
Virial Ratio       :            2.00941188


DFT components:
N(Alpha)           :       33.000012247950 electrons
N(Beta)            :       33.000012247950 electrons
N(Total)           :       66.000024495899 electrons
E(X)               :      -37.670697745394 Eh       
E(C)               :       -2.448200714139 Eh       
E(XC)              :      -40.118898459534 Eh       
DFET-embed. en.    :        0.000000000000 Eh       

---------------
SCF CONVERGENCE
---------------

  Last Energy change         ...   -2.9325e-09  Tolerance :   1.0000e-08
  Last MAX-Density change    ...    9.9920e-16  Tolerance :   1.0000e-07
  Last RMS-Density change    ...    1.3633e-17  Tolerance :   5.0000e-09
  Last Orbital Gradient      ...    2.8205e-06  Tolerance :   1.0000e-05
  Last Orbital Rotation      ...    3.6474e-06  Tolerance :   1.0000e-05

             **** THE GBW FILE WAS UPDATED (/Users/cxs454/Desktop/DecomPoly/S-S_Curve/PE_6.0.gbw) ****
             **** DENSITY /Users/cxs454/Desktop/DecomPoly/S-S_Curve/PE_6.0.scfp WAS UPDATED ****
             **** ENERGY FILE WAS UPDATED (/Users/cxs454/Desktop/DecomPoly/S-S_Curve/PE_6.0.en.tmp) ****
             **** THE GBW FILE WAS UPDATED (/Users/cxs454/Desktop/DecomPoly/S-S_Curve/PE_6.0.gbw) ****
             **** DENSITY /Users/cxs454/Desktop/DecomPoly/S-S_Curve/PE_6.0.scfp WAS UPDATED ****
----------------
ORBITAL ENERGIES
----------------

  NO   OCC          E(Eh)            E(eV) 
   0   2.0000     -10.183331      -277.1025 
   1   2.0000     -10.183330      -277.1025 
   2   2.0000     -10.182625      -277.0833 
   3   2.0000     -10.182534      -277.0808 
   4   2.0000     -10.182243      -277.0729 
   5   2.0000     -10.182241      -277.0729 
   6   2.0000     -10.175424      -276.8874 
   7   2.0000     -10.175424      -276.8874 
   8   2.0000      -0.758717       -20.6457 
   9   2.0000      -0.739441       -20.1212 
  10   2.0000      -0.714358       -19.4387 
  11   2.0000      -0.686541       -18.6817 
  12   2.0000      -0.649148       -17.6642 
  13   2.0000      -0.604545       -16.4505 
  14   2.0000      -0.574861       -15.6428 
  15   2.0000      -0.565441       -15.3864 
  16   2.0000      -0.454937       -12.3795 
  17   2.0000      -0.439560       -11.9610 
  18   2.0000      -0.420061       -11.4304 
  19   2.0000      -0.411709       -11.2032 
  20   2.0000      -0.409094       -11.1320 
  21   2.0000      -0.400032       -10.8854 
  22   2.0000      -0.377274       -10.2662 
  23   2.0000      -0.376096       -10.2341 
  24   2.0000      -0.367695       -10.0055 
  25   2.0000      -0.350121        -9.5273 
  26   2.0000      -0.341604        -9.2955 
  27   2.0000      -0.332643        -9.0517 
  28   2.0000      -0.330789        -9.0012 
  29   2.0000      -0.324596        -8.8327 
  30   2.0000      -0.310386        -8.4460 
  31   2.0000      -0.301003        -8.1907 
  32   2.0000      -0.289437        -7.8760 
  33   0.0000       0.030059         0.8179 
  34   0.0000       0.034614         0.9419 
  35   0.0000       0.040150         1.0925 
  36   0.0000       0.049082         1.3356 
  37   0.0000       0.074325         2.0225 
  38   0.0000       0.076075         2.0701 
  39   0.0000       0.083076         2.2606 
  40   0.0000       0.087900         2.3919 
  41   0.0000       0.105743         2.8774 
  42   0.0000       0.109353         2.9757 
  43   0.0000       0.113255         3.0818 
  44   0.0000       0.120325         3.2742 
  45   0.0000       0.121265         3.2998 
  46   0.0000       0.121580         3.3084 
  47   0.0000       0.124743         3.3944 
  48   0.0000       0.129372         3.5204 
  49   0.0000       0.132261         3.5990 
  50   0.0000       0.137726         3.7477 
  51   0.0000       0.149284         4.0622 
  52   0.0000       0.153428         4.1750 
  53   0.0000       0.155554         4.2328 
  54   0.0000       0.159893         4.3509 
  55   0.0000       0.175343         4.7713 
  56   0.0000       0.177853         4.8396 
  57   0.0000       0.191103         5.2002 
  58   0.0000       0.208259         5.6670 
  59   0.0000       0.228145         6.2081 
  60   0.0000       0.233273         6.3477 
  61   0.0000       0.233406         6.3513 
  62   0.0000       0.246389         6.7046 
  63   0.0000       0.248120         6.7517 
  64   0.0000       0.255698         6.9579 
  65   0.0000       0.264711         7.2031 
  66   0.0000       0.274914         7.4808 
  67   0.0000       0.276836         7.5331 
  68   0.0000       0.294665         8.0182 
  69   0.0000       0.296349         8.0641 
  70   0.0000       0.297254         8.0887 
  71   0.0000       0.318582         8.6691 
  72   0.0000       0.341462         9.2917 
  73   0.0000       0.357249         9.7212 
  74   0.0000       0.362329         9.8595 
  75   0.0000       0.389726        10.6050 
  76   0.0000       0.395180        10.7534 
  77   0.0000       0.396009        10.7759 
  78   0.0000       0.403740        10.9863 
  79   0.0000       0.419985        11.4284 
  80   0.0000       0.423088        11.5128 
  81   0.0000       0.424574        11.5532 
  82   0.0000       0.427453        11.6316 
  83   0.0000       0.443747        12.0750 
  84   0.0000       0.443912        12.0795 
  85   0.0000       0.451426        12.2839 
  86   0.0000       0.460758        12.5379 
  87   0.0000       0.464083        12.6283 
  88   0.0000       0.467657        12.7256 
  89   0.0000       0.473107        12.8739 
  90   0.0000       0.477024        12.9805 
  91   0.0000       0.483190        13.1483 
  92   0.0000       0.483858        13.1664 
  93   0.0000       0.488946        13.3049 
  94   0.0000       0.501595        13.6491 
  95   0.0000       0.504988        13.7414 
  96   0.0000       0.505994        13.7688 
  97   0.0000       0.515745        14.0341 
  98   0.0000       0.524795        14.2804 
  99   0.0000       0.544501        14.8166 
 100   0.0000       0.561047        15.2669 
 101   0.0000       0.586805        15.9678 
 102   0.0000       0.587587        15.9890 
 103   0.0000       0.592868        16.1328 
 104   0.0000       0.615853        16.7582 
 105   0.0000       0.620949        16.8969 
 106   0.0000       0.628590        17.1048 
 107   0.0000       0.659525        17.9466 
 108   0.0000       0.674401        18.3514 
 109   0.0000       0.726772        19.7765 
 110   0.0000       0.763150        20.7664 
 111   0.0000       0.786940        21.4137 
 112   0.0000       0.806758        21.9530 
 113   0.0000       0.812107        22.0985 
 114   0.0000       0.828241        22.5376 
 115   0.0000       0.832021        22.6404 
 116   0.0000       0.839795        22.8520 
 117   0.0000       0.853541        23.2260 
 118   0.0000       0.855692        23.2846 
 119   0.0000       0.866777        23.5862 
 120   0.0000       0.880291        23.9539 
 121   0.0000       0.892860        24.2960 
 122   0.0000       0.911801        24.8114 
 123   0.0000       0.922912        25.1137 
 124   0.0000       0.962728        26.1971 
 125   0.0000       0.971203        26.4278 
 126   0.0000       0.973253        26.4836 
 127   0.0000       0.973507        26.4905 
 128   0.0000       1.001727        27.2584 
 129   0.0000       1.004746        27.3405 
 130   0.0000       1.056320        28.7439 
 131   0.0000       1.061314        28.8798 
 132   0.0000       1.069837        29.1117 
 133   0.0000       1.073783        29.2191 
 134   0.0000       1.097049        29.8522 
 135   0.0000       1.107040        30.1241 
 136   0.0000       1.108228        30.1564 
 137   0.0000       1.131817        30.7983 
 138   0.0000       1.154553        31.4170 
 139   0.0000       1.176811        32.0227 
 140   0.0000       1.207721        32.8638 
 141   0.0000       1.214621        33.0515 
 142   0.0000       1.219437        33.1826 
 143   0.0000       1.224105        33.3096 
 144   0.0000       1.242749        33.8169 
 145   0.0000       1.280053        34.8320 
 146   0.0000       1.314153        35.7599 
 147   0.0000       1.322836        35.9962 
 148   0.0000       1.477836        40.2140 
 149   0.0000       1.480104        40.2757 
 150   0.0000       1.483055        40.3560 
 151   0.0000       1.488861        40.5140 
 152   0.0000       1.517111        41.2827 
 153   0.0000       1.518274        41.3143 
 154   0.0000       1.522594        41.4319 
 155   0.0000       1.524656        41.4880 
 156   0.0000       1.528295        41.5870 
 157   0.0000       1.535328        41.7784 
 158   0.0000       1.537521        41.8381 
 159   0.0000       1.542080        41.9621 
 160   0.0000       1.545330        42.0506 
 161   0.0000       1.550350        42.1872 
 162   0.0000       1.562224        42.5103 
 163   0.0000       1.568888        42.6916 
 164   0.0000       1.571518        42.7632 
 165   0.0000       1.573237        42.8099 
 166   0.0000       1.578458        42.9520 
 167   0.0000       1.584608        43.1194 
 168   0.0000       1.631962        44.4079 
 169   0.0000       1.634933        44.4888 
 170   0.0000       1.670106        45.4459 
 171   0.0000       1.701055        46.2881 
 172   0.0000       1.709423        46.5158 
 173   0.0000       1.728553        47.0363 
 174   0.0000       1.731373        47.1131 
 175   0.0000       1.740036        47.3488 
 176   0.0000       1.768441        48.1217 
 177   0.0000       1.786889        48.6237 
 178   0.0000       1.797882        48.9229 
 179   0.0000       1.808215        49.2040 
 180   0.0000       1.820737        49.5448 
 181   0.0000       1.829470        49.7824 
 182   0.0000       1.831664        49.8421 
 183   0.0000       1.844765        50.1986 
 184   0.0000       1.857840        50.5544 
 185   0.0000       1.862660        50.6856 
 186   0.0000       1.871502        50.9262 
 187   0.0000       1.895055        51.5671 
 188   0.0000       1.900638        51.7190 
 189   0.0000       1.913019        52.0559 
 190   0.0000       1.919336        52.2278 
 191   0.0000       1.938698        52.7547 
 192   0.0000       1.941166        52.8218 
 193   0.0000       2.004568        54.5471 
 194   0.0000       2.022894        55.0457 
 195   0.0000       2.070256        56.3345 
 196   0.0000       2.093920        56.9785 
 197   0.0000       2.120652        57.7059 
 198   0.0000       2.127017        57.8791 
 199   0.0000       2.166454        58.9522 
 200   0.0000       2.180399        59.3317 
 201   0.0000       2.204107        59.9768 
 202   0.0000       2.233194        60.7683 
 203   0.0000       2.242914        61.0328 
 204   0.0000       2.246457        61.1292 
 205   0.0000       2.261662        61.5429 
 206   0.0000       2.269610        61.7592 
 207   0.0000       2.288076        62.2617 
 208   0.0000       2.291685        62.3599 
 209   0.0000       2.324673        63.2576 
 210   0.0000       2.326715        63.3131 
 211   0.0000       2.333295        63.4922 
 212   0.0000       2.360853        64.2421 
 213   0.0000       2.367725        64.4291 
 214   0.0000       2.410443        65.5915 
 215   0.0000       2.420211        65.8573 
 216   0.0000       2.425241        65.9942 
 217   0.0000       2.427870        66.0657 
 218   0.0000       2.452792        66.7439 
 219   0.0000       2.457888        66.8825 
 220   0.0000       2.471820        67.2616 
 221   0.0000       2.479885        67.4811 
 222   0.0000       2.487946        67.7005 
 223   0.0000       2.495925        67.9176 
 224   0.0000       2.538736        69.0825 
 225   0.0000       2.542214        69.1772 
 226   0.0000       2.545144        69.2569 
 227   0.0000       2.555137        69.5288 
 228   0.0000       2.571521        69.9746 
 229   0.0000       2.573385        70.0254 
 230   0.0000       2.609005        70.9946 
 231   0.0000       2.609179        70.9994 
 232   0.0000       2.616299        71.1931 
 233   0.0000       2.621177        71.3258 
 234   0.0000       2.631636        71.6105 
 235   0.0000       2.650784        72.1315 
 236   0.0000       2.652741        72.1847 
 237   0.0000       2.673783        72.7573 
 238   0.0000       2.681255        72.9607 
 239   0.0000       2.687790        73.1385 
 240   0.0000       2.692369        73.2631 
 241   0.0000       2.700872        73.4945 
 242   0.0000       2.707343        73.6705 
 243   0.0000       2.710162        73.7473 
 244   0.0000       2.731727        74.3341 
 245   0.0000       2.739725        74.5517 
 246   0.0000       2.764220        75.2183 
 247   0.0000       2.801460        76.2316 
 248   0.0000       2.807951        76.4082 
 249   0.0000       2.812474        76.5313 
 250   0.0000       2.857080        77.7451 
 251   0.0000       2.882671        78.4415 
 252   0.0000       2.907722        79.1231 
 253   0.0000       2.915484        79.3344 
 254   0.0000       2.951181        80.3057 
 255   0.0000       2.980079        81.0921 
 256   0.0000       2.991370        81.3993 
 257   0.0000       3.069987        83.5386 
 258   0.0000       3.076199        83.7076 
 259   0.0000       3.096600        84.2628 
 260   0.0000       3.102729        84.4296 
 261   0.0000       3.126053        85.0642 
 262   0.0000       3.157054        85.9078 
 263   0.0000       3.172037        86.3155 
 264   0.0000       3.174090        86.3714 
 265   0.0000       3.192516        86.8728 
 266   0.0000       3.192561        86.8740 
 267   0.0000       3.194551        86.9282 
 268   0.0000       3.200177        87.0812 
 269   0.0000       3.220896        87.6450 
 270   0.0000       3.224785        87.7509 
 271   0.0000       3.233386        87.9849 
 272   0.0000       3.249833        88.4325 
 273   0.0000       3.265585        88.8611 
 274   0.0000       3.276981        89.1712 
 275   0.0000       3.296745        89.7090 
 276   0.0000       3.307946        90.0138 
 277   0.0000       3.316770        90.2539 
 278   0.0000       3.318881        90.3113 
 279   0.0000       3.326947        90.5308 
 280   0.0000       3.338907        90.8563 
 281   0.0000       3.349422        91.1424 
 282   0.0000       3.367221        91.6267 
 283   0.0000       3.370778        91.7235 
 284   0.0000       3.378267        91.9273 
 285   0.0000       3.384709        92.1026 
 286   0.0000       3.391527        92.2881 
 287   0.0000       3.406830        92.7046 
 288   0.0000       3.407303        92.7174 
 289   0.0000       3.424162        93.1762 
 290   0.0000       3.434387        93.4544 
 291   0.0000       3.439634        93.5972 
 292   0.0000       3.451073        93.9085 
 293   0.0000       3.454701        94.0072 
 294   0.0000       3.469446        94.4084 
 295   0.0000       3.481477        94.7358 
 296   0.0000       3.505703        95.3950 
 297   0.0000       3.508266        95.4648 
 298   0.0000       3.519791        95.7784 
 299   0.0000       3.523239        95.8722 
 300   0.0000       3.529826        96.0515 
 301   0.0000       3.573221        97.2323 
 302   0.0000       3.574880        97.2774 
 303   0.0000       3.587819        97.6295 
 304   0.0000       3.634441        98.8982 
 305   0.0000       3.672877        99.9441 
 306   0.0000       3.717294       101.1527 
 307   0.0000       3.735269       101.6418 
 308   0.0000       3.751951       102.0958 
 309   0.0000       3.789454       103.1163 
 310   0.0000       3.793133       103.2164 
 311   0.0000       3.807513       103.6077 
 312   0.0000       3.824878       104.0802 
 313   0.0000       3.861023       105.0638 
 314   0.0000       3.864415       105.1561 
 315   0.0000       3.876422       105.4828 
 316   0.0000       3.909244       106.3759 
 317   0.0000       3.910726       106.4163 
 318   0.0000       3.924460       106.7900 
 319   0.0000       4.000584       108.8614 
 320   0.0000       4.052103       110.2633 
 321   0.0000       4.062612       110.5493 
 322   0.0000       4.140598       112.6714 
 323   0.0000       4.186303       113.9151 
 324   0.0000       4.194507       114.1384 
 325   0.0000       4.200460       114.3003 
 326   0.0000       4.211929       114.6124 
 327   0.0000       4.243799       115.4796 
 328   0.0000       4.262489       115.9882 
 329   0.0000       4.282310       116.5276 
 330   0.0000       4.314937       117.4154 
 331   0.0000       4.315881       117.4411 
 332   0.0000       4.353222       118.4572 
 333   0.0000       4.380330       119.1948 
 334   0.0000       4.409055       119.9765 
 335   0.0000       4.441261       120.8529 
 336   0.0000       4.442688       120.8917 
 337   0.0000       4.443850       120.9233 
 338   0.0000       4.447554       121.0241 
 339   0.0000       4.494415       122.2992 
 340   0.0000       4.578512       124.5877 
 341   0.0000       4.646619       126.4409 
 342   0.0000       4.676005       127.2406 
 343   0.0000       4.688286       127.5748 
 344   0.0000       4.696891       127.8089 
 345   0.0000       4.832259       131.4925 
 346   0.0000       4.897800       133.2759 
 347   0.0000       4.921517       133.9213 
 348   0.0000      22.161021       603.0320 
 349   0.0000      22.163332       603.0949 
 350   0.0000      22.190633       603.8378 
 351   0.0000      22.198570       604.0538 
 352   0.0000      22.251032       605.4814 
 353   0.0000      22.257744       605.6640 
 354   0.0000      22.312599       607.1567 
 355   0.0000      22.321819       607.4076 

                    ********************************
                    * MULLIKEN POPULATION ANALYSIS *
                    ********************************

-----------------------
MULLIKEN ATOMIC CHARGES
-----------------------
   0 C :   -0.318464
   1 C :   -0.222126
   2 H :    0.113881
   3 H :    0.116855
   4 H :    0.113932
   5 H :    0.096440
   6 C :   -0.175551
   7 H :    0.096462
   8 H :    0.093247
   9 H :    0.093322
  10 C :   -0.194067
  11 H :    0.093064
  12 C :   -0.194078
  13 H :    0.093006
  14 H :    0.093006
  15 H :    0.093064
  16 C :   -0.175545
  17 H :    0.093323
  18 C :   -0.222121
  19 H :    0.093249
  20 H :    0.096462
  21 H :    0.096438
  22 C :   -0.318466
  23 H :    0.113933
  24 H :    0.116855
  25 H :    0.113878
Sum of atomic charges:    0.0000000

--------------------------------
MULLIKEN REDUCED ORBITAL CHARGES
--------------------------------
  0 C s       :     3.285535  s :     3.285535
      pz      :     1.025804  p :     2.991817
      px      :     0.922310
      py      :     1.043703
      dz2     :     0.005906  d :     0.038332
      dxz     :     0.008885
      dyz     :     0.003849
      dx2y2   :     0.006180
      dxy     :     0.013512
      f0      :     0.000232  f :     0.002779
      f+1     :     0.000231
      f-1     :     0.000792
      f+2     :     0.000281
      f-2     :     0.000199
      f+3     :     0.000702
      f-3     :     0.000342
  1 C s       :     3.273795  s :     3.273795
      pz      :     0.952868  p :     2.872290
      px      :     0.922722
      py      :     0.996700
      dz2     :     0.014698  d :     0.072179
      dxz     :     0.020505
      dyz     :     0.009834
      dx2y2   :     0.013893
      dxy     :     0.013249
      f0      :     0.000469  f :     0.003863
      f+1     :     0.000642
      f-1     :     0.000768
      f+2     :     0.000544
      f-2     :     0.000337
      f+3     :     0.000636
      f-3     :     0.000469
  2 H s       :     0.864555  s :     0.864555
      pz      :     0.008122  p :     0.021564
      px      :     0.006431
      py      :     0.007011
  3 H s       :     0.861464  s :     0.861464
      pz      :     0.011104  p :     0.021682
      px      :     0.004599
      py      :     0.005978
  4 H s       :     0.864506  s :     0.864506
      pz      :     0.004277  p :     0.021562
      px      :     0.006405
      py      :     0.010880
  5 H s       :     0.881360  s :     0.881360
      pz      :     0.004790  p :     0.022199
      px      :     0.005862
      py      :     0.011547
  6 C s       :     3.251574  s :     3.251574
      pz      :     0.953402  p :     2.845631
      px      :     0.886019
      py      :     1.006209
      dz2     :     0.015822  d :     0.074027
      dxz     :     0.019172
      dyz     :     0.009257
      dx2y2   :     0.015351
      dxy     :     0.014425
      f0      :     0.000535  f :     0.004319
      f+1     :     0.000686
      f-1     :     0.000808
      f+2     :     0.000633
      f-2     :     0.000266
      f+3     :     0.000736
      f-3     :     0.000657
  7 H s       :     0.881344  s :     0.881344
      pz      :     0.009958  p :     0.022194
      px      :     0.005873
      py      :     0.006363
  8 H s       :     0.884738  s :     0.884738
      pz      :     0.010291  p :     0.022014
      px      :     0.005463
      py      :     0.006260
  9 H s       :     0.884663  s :     0.884663
      pz      :     0.004749  p :     0.022015
      px      :     0.005462
      py      :     0.011804
 10 C s       :     3.257707  s :     3.257707
      pz      :     0.955194  p :     2.858968
      px      :     0.898416
      py      :     1.005359
      dz2     :     0.015127  d :     0.073116
      dxz     :     0.019265
      dyz     :     0.008815
      dx2y2   :     0.015320
      dxy     :     0.014588
      f0      :     0.000498  f :     0.004275
      f+1     :     0.000690
      f-1     :     0.000755
      f+2     :     0.000646
      f-2     :     0.000279
      f+3     :     0.000741
      f-3     :     0.000666
 11 H s       :     0.884879  s :     0.884879
      pz      :     0.004791  p :     0.022057
      px      :     0.005443
      py      :     0.011823
 12 C s       :     3.257710  s :     3.257710
      pz      :     0.955191  p :     2.858977
      px      :     0.898420
      py      :     1.005366
      dz2     :     0.015127  d :     0.073116
      dxz     :     0.019265
      dyz     :     0.008817
      dx2y2   :     0.015319
      dxy     :     0.014589
      f0      :     0.000498  f :     0.004275
      f+1     :     0.000690
      f-1     :     0.000755
      f+2     :     0.000646
      f-2     :     0.000279
      f+3     :     0.000741
      f-3     :     0.000666
 13 H s       :     0.884937  s :     0.884937
      pz      :     0.010351  p :     0.022058
      px      :     0.005440
      py      :     0.006266
 14 H s       :     0.884936  s :     0.884936
      pz      :     0.010351  p :     0.022058
      px      :     0.005440
      py      :     0.006267
 15 H s       :     0.884879  s :     0.884879
      pz      :     0.004791  p :     0.022057
      px      :     0.005444
      py      :     0.011822
 16 C s       :     3.251574  s :     3.251574
      pz      :     0.953413  p :     2.845624
      px      :     0.886020
      py      :     1.006191
      dz2     :     0.015823  d :     0.074028
      dxz     :     0.019170
      dyz     :     0.009256
      dx2y2   :     0.015351
      dxy     :     0.014429
      f0      :     0.000535  f :     0.004319
      f+1     :     0.000685
      f-1     :     0.000808
      f+2     :     0.000633
      f-2     :     0.000266
      f+3     :     0.000736
      f-3     :     0.000657
 17 H s       :     0.884663  s :     0.884663
      pz      :     0.004749  p :     0.022015
      px      :     0.005462
      py      :     0.011803
 18 C s       :     3.273789  s :     3.273789
      pz      :     0.952872  p :     2.872290
      px      :     0.922734
      py      :     0.996684
      dz2     :     0.014700  d :     0.072179
      dxz     :     0.020501
      dyz     :     0.009835
      dx2y2   :     0.013890
      dxy     :     0.013254
      f0      :     0.000469  f :     0.003863
      f+1     :     0.000641
      f-1     :     0.000768
      f+2     :     0.000544
      f-2     :     0.000337
      f+3     :     0.000636
      f-3     :     0.000468
 19 H s       :     0.884737  s :     0.884737
      pz      :     0.010292  p :     0.022015
      px      :     0.005463
      py      :     0.006260
 20 H s       :     0.881344  s :     0.881344
      pz      :     0.009959  p :     0.022194
      px      :     0.005873
      py      :     0.006363
 21 H s       :     0.881362  s :     0.881362
      pz      :     0.004790  p :     0.022200
      px      :     0.005863
      py      :     0.011546
 22 C s       :     3.285528  s :     3.285528
      pz      :     1.025814  p :     2.991826
      px      :     0.922319
      py      :     1.043693
      dz2     :     0.005905  d :     0.038333
      dxz     :     0.008884
      dyz     :     0.003851
      dx2y2   :     0.006179
      dxy     :     0.013514
      f0      :     0.000231  f :     0.002779
      f+1     :     0.000231
      f-1     :     0.000793
      f+2     :     0.000281
      f-2     :     0.000199
      f+3     :     0.000702
      f-3     :     0.000342
 23 H s       :     0.864505  s :     0.864505
      pz      :     0.004277  p :     0.021562
      px      :     0.006407
      py      :     0.010878
 24 H s       :     0.861463  s :     0.861463
      pz      :     0.011104  p :     0.021682
      px      :     0.004599
      py      :     0.005979
 25 H s       :     0.864558  s :     0.864558
      pz      :     0.008123  p :     0.021564
      px      :     0.006430
      py      :     0.007011


                     *******************************
                     * LOEWDIN POPULATION ANALYSIS *
                     *******************************

----------------------
LOEWDIN ATOMIC CHARGES
----------------------
   0 C :   -0.291152
   1 C :   -0.250633
   2 H :    0.105021
   3 H :    0.112189
   4 H :    0.105034
   5 H :    0.117044
   6 C :   -0.247910
   7 H :    0.117058
   8 H :    0.117385
   9 H :    0.117396
  10 C :   -0.238363
  11 H :    0.118465
  12 C :   -0.238364
  13 H :    0.118466
  14 H :    0.118465
  15 H :    0.118467
  16 C :   -0.247909
  17 H :    0.117395
  18 C :   -0.250633
  19 H :    0.117386
  20 H :    0.117058
  21 H :    0.117045
  22 C :   -0.291153
  23 H :    0.105034
  24 H :    0.112189
  25 H :    0.105021

-------------------------------
LOEWDIN REDUCED ORBITAL CHARGES
-------------------------------
  0 C s       :     2.894504  s :     2.894504
      pz      :     1.090140  p :     3.193913
      px      :     1.001035
      py      :     1.102737
      dz2     :     0.035957  d :     0.186744
      dxz     :     0.032812
      dyz     :     0.031811
      dx2y2   :     0.035186
      dxy     :     0.050978
      f0      :     0.001433  f :     0.015992
      f+1     :     0.002283
      f-1     :     0.002914
      f+2     :     0.002051
      f-2     :     0.001926
      f+3     :     0.003557
      f-3     :     0.001828
  1 C s       :     2.870535  s :     2.870535
      pz      :     1.031673  p :     3.078872
      px      :     0.980713
      py      :     1.066486
      dz2     :     0.059145  d :     0.279030
      dxz     :     0.067997
      dyz     :     0.045668
      dx2y2   :     0.059507
      dxy     :     0.046714
      f0      :     0.002128  f :     0.022195
      f+1     :     0.003970
      f-1     :     0.003382
      f+2     :     0.002803
      f-2     :     0.004175
      f+3     :     0.003265
      f-3     :     0.002471
  2 H s       :     0.831320  s :     0.831320
      pz      :     0.024424  p :     0.063658
      px      :     0.018003
      py      :     0.021232
  3 H s       :     0.824202  s :     0.824202
      pz      :     0.032218  p :     0.063609
      px      :     0.013207
      py      :     0.018184
  4 H s       :     0.831311  s :     0.831311
      pz      :     0.013274  p :     0.063656
      px      :     0.017930
      py      :     0.032452
  5 H s       :     0.820490  s :     0.820490
      pz      :     0.013891  p :     0.062466
      px      :     0.016219
      py      :     0.032356
  6 C s       :     2.853387  s :     2.853387
      pz      :     1.027940  p :     3.066896
      px      :     0.976798
      py      :     1.062158
      dz2     :     0.065356  d :     0.303032
      dxz     :     0.068493
      dyz     :     0.045974
      dx2y2   :     0.070062
      dxy     :     0.053148
      f0      :     0.002629  f :     0.024595
      f+1     :     0.004073
      f-1     :     0.003742
      f+2     :     0.003122
      f-2     :     0.003665
      f+3     :     0.003627
      f-3     :     0.003736
  7 H s       :     0.820481  s :     0.820481
      pz      :     0.027299  p :     0.062462
      px      :     0.016252
      py      :     0.018910
  8 H s       :     0.820946  s :     0.820946
      pz      :     0.027913  p :     0.061669
      px      :     0.015019
      py      :     0.018737
  9 H s       :     0.820934  s :     0.820934
      pz      :     0.013793  p :     0.061670
      px      :     0.015020
      py      :     0.032857
 10 C s       :     2.853486  s :     2.853486
      pz      :     1.025414  p :     3.062487
      px      :     0.975645
      py      :     1.061429
      dz2     :     0.062587  d :     0.298071
      dxz     :     0.068401
      dyz     :     0.043873
      dx2y2   :     0.070261
      dxy     :     0.052949
      f0      :     0.002475  f :     0.024319
      f+1     :     0.004004
      f-1     :     0.003623
      f+2     :     0.003103
      f-2     :     0.003642
      f+3     :     0.003655
      f-3     :     0.003817
 11 H s       :     0.819761  s :     0.819761
      pz      :     0.013873  p :     0.061774
      px      :     0.015014
      py      :     0.032886
 12 C s       :     2.853485  s :     2.853485
      pz      :     1.025413  p :     3.062489
      px      :     0.975647
      py      :     1.061429
      dz2     :     0.062587  d :     0.298071
      dxz     :     0.068399
      dyz     :     0.043877
      dx2y2   :     0.070254
      dxy     :     0.052953
      f0      :     0.002475  f :     0.024319
      f+1     :     0.004004
      f-1     :     0.003622
      f+2     :     0.003104
      f-2     :     0.003641
      f+3     :     0.003655
      f-3     :     0.003817
 13 H s       :     0.819758  s :     0.819758
      pz      :     0.028102  p :     0.061776
      px      :     0.015004
      py      :     0.018670
 14 H s       :     0.819759  s :     0.819759
      pz      :     0.028102  p :     0.061776
      px      :     0.015004
[...]

Old exchange energy                            =     -9.394585026 Eh
New exchange energy                            =     -9.394577763 Eh
Exchange energy change after final integration =      0.000007262 Eh
Total energy after final integration           =   -315.063530322 Eh
Final COS-X integration done in                =    12.825 sec
Total Energy       :         -317.85689719 Eh           -8649.32590 eV
SCF Energy         :         -315.06353032 Eh           -8573.31452 eV
External Potential :           -2.79336687 Eh             -76.01138 eV
  Last Energy change         ...   -5.3265e-09  Tolerance :   1.0000e-08
  Last MAX-Density change    ...    1.2212e-15  Tolerance :   1.0000e-07
             **** THE GBW FILE WAS UPDATED (/Users/cxs454/Desktop/DecomPoly/S-S_Curve/PE_6.0.gbw) ****
             **** DENSITY /Users/cxs454/Desktop/DecomPoly/S-S_Curve/PE_6.0.scfp WAS UPDATED ****
             **** ENERGY FILE WAS UPDATED (/Users/cxs454/Desktop/DecomPoly/S-S_Curve/PE_6.0.en.tmp) ****
             **** THE GBW FILE WAS UPDATED (/Users/cxs454/Desktop/DecomPoly/S-S_Curve/PE_6.0.gbw) ****
             **** DENSITY /Users/cxs454/Desktop/DecomPoly/S-S_Curve/PE_6.0.scfp WAS UPDATED ****
Total SCF time: 0 days 0 hours 1 min 46 sec 

Maximum memory used throughout the entire SCF-calculation: 138.3 MB


-------------------------------------------------------------------------------
                          DFT DISPERSION CORRECTION                            
                                                                               
                              DFTD3 V3.1  Rev 1                                
                          USING Becke-Johnson damping                          
-------------------------------------------------------------------------------
-------------------------   ----------------
Dispersion correction           -0.022504640
-------------------------   ----------------


-------------------------   --------------------
FINAL SINGLE POINT ENERGY      -315.086034962178
-------------------------   --------------------

------------------------------------------------------------------------------
                         ORCA SCF GRADIENT CALCULATION
------------------------------------------------------------------------------

 ... reading COSX grid (gridx3)
Gradient of the Kohn-Sham DFT energy:
Kohn-Sham wavefunction type      ... RKS
Hartree-Fock exchange scaling    ...    0.200
Number of operators              ...    1
Number of atoms                  ...   26
Basis set dimensions             ...  356
Integral neglect threshold       ... 2.5e-11
Integral primitive cutoff        ... 2.5e-12
SHARK Integral package           ... ON

Nuc. rep. gradient       (SHARK) ... done (  0.0 sec)
HCore & Overlap gradient (SHARK) ... done (  0.2 sec)
RI-J gradient            (SHARK) ... done (  1.2 sec)
COSX-gradient                    ... done ( 15.6 sec)
Exchange-correlation gradient    ... done
Dispersion correction            ... done

------------------
CARTESIAN GRADIENT
------------------

   1   C   :    0.000898666   -0.002058888   -0.000666393
   2   C   :   -0.080386811    0.011208686    0.036333310
   3   H   :   -0.000288024    0.000853404    0.000233042
   4   H   :   -0.000319873    0.000937530    0.000145327
   5   H   :   -0.000364964    0.000337193    0.000360010
   6   H   :    0.006679151    0.001540586    0.003844744
   7   C   :    0.068063532   -0.004538592   -0.020954142
   8   H   :    0.005672933    0.004173659    0.001582875
   9   H   :   -0.008738423   -0.004080256    0.001211594
  10   H   :   -0.009081293    0.001311096    0.000157486
  11   C   :   -0.062823820    0.009170141    0.018882897
  12   H   :    0.005573256   -0.001584587    0.001976001
  13   C   :    0.057723041   -0.008149818   -0.021063467
  14   H   :    0.006754329    0.000765905   -0.001821719
  15   H   :   -0.006079257   -0.001482197    0.000795846
  16   H   :   -0.006913765    0.002675176    0.001020430
  17   C   :   -0.061019718    0.018155189    0.008592797
  18   H   :    0.006895115   -0.002881623    0.003201767
  19   C   :    0.088010552   -0.024944289   -0.025129282
  20   H   :    0.006402275    0.000170546   -0.000238527
  21   H   :   -0.009551749   -0.003942531   -0.002926957
  22   H   :   -0.007312575    0.002512223   -0.005481452
  23   C   :   -0.002634381    0.001141412    0.001604236
  24   H   :    0.001086766   -0.000345372   -0.000419297
  25   H   :    0.000798984   -0.000579825   -0.000662148
  26   H   :    0.000981624   -0.000305419   -0.000623285

Difference to translation invariance:
           :    0.0000255702    0.0000593499   -0.0000443104

Difference to rotation invariance:
           :   -0.0006618975   -0.0002116155   -0.0017808256

Norm of the cartesian gradient     ...    0.1875276695
RMS gradient                       ...    0.0212333273
MAX gradient                       ...    0.0880105522

-------
TIMINGS
-------

Total SCF gradient time            ...       21.604 sec

One electron gradient       ....       0.233 sec  (  1.1%)
RI-J Coulomb gradient       ....       1.175 sec  (  5.4%)
COSX gradient               ....      15.552 sec  ( 72.0%)
XC gradient                 ....       4.246 sec  ( 19.7%)

Maximum memory used throughout the entire SCFGRAD-calculation: 107.3 MB
------------------------------------------------------------------------------
                         ORCA GEOMETRY RELAXATION STEP
------------------------------------------------------------------------------

Reading the OPT-File                    .... done
Getting information on internals        .... done
Copying old internal coords+grads       .... done
Making the new internal coordinates     .... (new redundants).... done
Validating the new internal coordinates .... (new redundants).... done
Calculating the B-matrix                .... done
Calculating the G,G- and P matrices     .... done
Transforming gradient to internals      .... done
Projecting the internal gradient        .... done
Number of atoms                         ....  26
Number of internal coordinates          .... 136
Current Energy                          ....  -315.086034962 Eh
Current gradient norm                   ....     0.215586918 Eh/bohr
Maximum allowed component of the step   ....  0.300
Current trust radius                    ....  0.300
Updating the Hessian (BFGS)             .... done
Forming the augmented Hessian           .... done
Diagonalizing the augmented Hessian     .... done
Last element of RFO vector              ....  0.000195090
Lowest eigenvalues of augmented Hessian:
 -84.709555814 -0.175627217 -0.045963369 -0.004268694 -0.000017221
Warning: RFO finds a terribly low value for the scaling factor
Trying a QUASI-NEWTON step instead
Doing a quasi-Newton Step:
Inverting the Hessian                   .... done
Computing the step                      .... done
Length of the computed step             .... 221.530265091
Warning: the length of the step is outside the trust region - QNStep is scaled down
Converting the step to cartesian space:
 Initial RMS(Int)=    0.0257247878
Transforming coordinates:
 Iter   0:  RMS(Cart)=    0.0625166149 RMS(Int)=    0.0255359982
 Iter   1:  RMS(Cart)=    0.0004661217 RMS(Int)=    0.0002959524
 Iter   2:  RMS(Cart)=    0.0000146832 RMS(Int)=    0.0000084604
 Iter   3:  RMS(Cart)=    0.0000005677 RMS(Int)=    0.0000003915
 Iter   4:  RMS(Cart)=    0.0000000207 RMS(Int)=    0.0000000132
done
Storing new coordinates                 .... done

                                .--------------------.
          ----------------------|Geometry convergence|-------------------------
          Item                value                   Tolerance       Converged
          ---------------------------------------------------------------------
          Energy change      -0.0004902755            0.0000050000      NO
          RMS gradient        0.0208019740            0.0001000000      NO
          MAX gradient        0.0879825900            0.0003000000      NO
          RMS step            0.0257247878            0.0020000000      NO
          MAX step            0.1955166700            0.0040000000      NO
          ........................................................
          Max(Bonds)      0.1035      Max(Angles)    0.96
          Max(Dihed)        2.46      Max(Improp)    0.00
          ---------------------------------------------------------------------

The optimization has not yet converged - more geometry cycles are needed


    ---------------------------------------------------------------------------
                         Redundant Internal Coordinates
                            (Angstroem and degrees)

        Definition                    Value    dE/dq     Step     New-Value
    ----------------------------------------------------------------------------
     1. B(C   1,C   0)                6.8840 -0.072275  0.1035    6.9874   
     2. B(H   2,C   0)                1.0786  0.000245  0.0001    1.0787   
     3. B(H   3,C   0)                1.0790  0.000461  0.0002    1.0792   
     4. B(H   4,C   0)                1.0778 -0.000126 -0.0002    1.0776   
     5. B(H   5,C   1)                1.0859  0.000188  0.0002    1.0862   
     6. B(C   6,C   1)                1.5391  0.008945 -0.0008    1.5382   
     7. B(H   7,C   1)                1.0856 -0.000000  0.0001    1.0857   
     8. B(H   8,C   6)                1.0886  0.000397  0.0001    1.0887   
     9. B(H   9,C   6)                1.0881 -0.000331 -0.0001    1.0880   
    10. B(C  10,C   6)                2.0178 -0.045250 -0.0058    2.0120   
    11. B(H  11,C  10)                1.0890  0.000305  0.0001    1.0890   
    12. B(C  12,C  10)                1.6372  0.009289 -0.0011    1.6361   
    13. B(H  13,C  10)                1.0888 -0.000140  0.0000    1.0888   
    14. B(H  14,C  12)                1.0879 -0.000457  0.0000    1.0879   
    15. B(H  15,C  12)                1.0883 -0.000486 -0.0001    1.0883   
    16. B(C  16,C  12)                1.9634 -0.038947 -0.0019    1.9615   
    17. B(H  17,C  16)                1.0883  0.000156  0.0000    1.0883   
    18. B(C  18,C  16)                1.5658  0.009059 -0.0006    1.5652   
    19. B(H  19,C  16)                1.0891  0.000201  0.0001    1.0892   
    20. B(H  20,C  18)                1.0864 -0.000817  0.0000    1.0864   
    21. B(H  21,C  18)                1.0856 -0.001041  0.0000    1.0856   
    22. B(C  22,C  18)                5.5553 -0.071878  0.0962    5.6515   
    23. B(H  23,C  22)                1.0783  0.000062  0.0000    1.0783   
    24. B(H  24,C  22)                1.0786  0.000250  0.0001    1.0787   
    25. B(H  25,C  22)                1.0784  0.000050  0.0001    1.0785   
    26. A(C   1,C   0,H   4)           92.76  0.001107   -0.10     92.66   
    27. A(C   1,C   0,H   2)          103.34  0.001112    0.44    103.79   
    28. A(H   2,C   0,H   3)          119.41 -0.000497   -0.05    119.36   
    29. A(H   2,C   0,H   4)          120.23 -0.000040    0.01    120.24   
    30. A(C   1,C   0,H   3)           77.57  0.001283   -0.05     77.52   
    31. A(H   3,C   0,H   4)          120.22  0.000267    0.05    120.27   
    32. A(C   0,C   1,H   7)           66.42 -0.010586   -0.57     65.85   
    33. A(C   0,C   1,H   5)           68.71 -0.012441   -0.12     68.59   
    34. A(C   6,C   1,H   7)          117.96 -0.004085    0.33    118.29   
    35. A(H   5,C   1,H   7)          114.42 -0.002134    0.62    115.05   
    36. A(C   0,C   1,C   6)          164.30  0.050938    0.40    164.70   
    37. A(H   5,C   1,C   6)          118.25 -0.009138    0.36    118.61   
    38. A(C   1,C   6,H   9)          106.55  0.009019   -0.56    105.99   
    39. A(H   8,C   6,H   9)          108.80 -0.008966    0.52    109.32   
    40. A(C   1,C   6,H   8)          108.02  0.020266   -0.25    107.76   
    41. A(H   8,C   6,C  10)          100.23  0.035832    0.46    100.69   
    42. A(H   9,C   6,C  10)           97.02  0.029072    0.04     97.06   
    43. A(C   1,C   6,C  10)          134.30 -0.080092    0.11    134.41   
    44. A(C  12,C  10,H  13)          107.05 -0.023307    0.15    107.20   
    45. A(H  11,C  10,H  13)          107.93  0.006497    0.15    108.08   
    46. A(C   6,C  10,H  13)           97.55 -0.018471   -0.02     97.52   
    47. A(C   6,C  10,C  12)          129.95  0.071770   -0.12    129.83   
    48. A(C   6,C  10,H  11)          101.98 -0.020770    0.04    102.02   
    49. A(H  11,C  10,C  12)          110.42 -0.020488    0.18    110.60   
    50. A(H  15,C  12,C  16)          101.33  0.028750   -0.10    101.23   
    51. A(H  14,C  12,C  16)          103.88  0.036517    0.28    104.16   
    52. A(C  10,C  12,C  16)          125.46 -0.087983    0.12    125.58   
    53. A(H  14,C  12,H  15)          108.29 -0.011161    0.23    108.52   
    54. A(C  10,C  12,H  15)          107.08  0.014007   -0.33    106.75   
    55. A(C  10,C  12,H  14)          109.68  0.024452    0.01    109.69   
    56. A(C  12,C  16,H  17)           99.88 -0.015485    0.25    100.12   
    57. A(C  18,C  16,H  19)          106.50 -0.021608   -0.08    106.42   
    58. A(H  17,C  16,H  19)          108.32  0.004878    0.12    108.45   
    59. A(C  12,C  16,H  19)           98.00 -0.016452   -0.10     97.89   
    60. A(H  17,C  16,C  18)          108.40 -0.019671    0.19    108.59   
    61. A(C  12,C  16,C  18)          133.75  0.063986   -0.18    133.58   
    62. A(H  21,C  18,C  22)           76.45  0.023665   -0.27     76.17   
    63. A(H  20,C  18,C  22)           74.14  0.024817   -0.17     73.96   
    64. A(C  16,C  18,C  22)          154.24 -0.059590    0.18    154.41   
    65. A(H  20,C  18,H  21)          112.59  0.000407    0.96    113.55   
    66. A(C  16,C  18,H  21)          116.31  0.006628   -0.18    116.13   
    67. A(C  16,C  18,H  20)          116.27  0.002175   -0.09    116.18   
    68. A(H  24,C  22,H  25)          119.75 -0.000301    0.11    119.86   
    69. A(H  23,C  22,H  25)          119.74 -0.000671    0.07    119.81   
    70. A(C  18,C  22,H  25)          100.12  0.002299    0.22    100.34   
    71. A(H  23,C  22,H  24)          120.05  0.000034    0.15    120.20   
    72. A(C  18,C  22,H  24)           80.73  0.002300    0.12     80.85   
    73. A(C  18,C  22,H  23)           95.81  0.002290   -0.01     95.80   
    74. D(H   5,C   1,C   0,H   3)    -46.66 -0.007607   -0.14    -46.80   
    75. D(H   7,C   1,C   0,H   4)    -36.14  0.010285    0.05    -36.10   
    76. D(H   7,C   1,C   0,H   3)     84.21  0.010214    0.10     84.31   
    77. D(H   5,C   1,C   0,H   2)     71.02 -0.008064   -0.26     70.76   
    78. D(C   6,C   1,C   0,H   2)    -48.38 -0.002685   -1.12    -49.50   
    79. D(H   5,C   1,C   0,H   4)   -167.01 -0.007536   -0.20   -167.21   
    80. D(H   7,C   1,C   0,H   2)   -158.11  0.009757   -0.02   -158.13   
    81. D(C   6,C   1,C   0,H   3)   -166.06 -0.002228   -1.00   -167.06   
    82. D(C   6,C   1,C   0,H   4)     73.58 -0.002157   -1.06     72.53   
    83. D(H   8,C   6,C   1,H   5)    -50.38 -0.012639    0.14    -50.24   
    84. D(H   8,C   6,C   1,H   7)    164.87  0.013913    0.39    165.26   
    85. D(H   8,C   6,C   1,C   0)     62.48  0.003321    1.32     63.80   
    86. D(H   9,C   6,C   1,H   7)     48.12  0.009636    0.19     48.31   
    87. D(H   9,C   6,C   1,H   5)   -167.13 -0.016916   -0.06   -167.19   
    88. D(C  10,C   6,C   1,H   7)    -69.80  0.018999    0.30    -69.50   
    89. D(C  10,C   6,C   1,H   5)     74.96 -0.007552    0.05     75.01   
    90. D(C  10,C   6,C   1,C   0)   -172.19  0.008407    1.23   -170.96   
    91. D(H   9,C   6,C   1,C   0)    -54.28 -0.000956    1.12    -53.16   
    92. D(H  13,C  10,C   6,C   1)     70.00 -0.006165   -0.12     69.88   
    93. D(C  12,C  10,C   6,H   9)     68.38 -0.004214   -0.64     67.73   
    94. D(H  13,C  10,C   6,H   8)   -162.03 -0.001383    0.30   -161.73   
    95. D(C  12,C  10,C   6,H   8)    -42.24 -0.009028    0.08    -42.16   
    96. D(H  11,C  10,C   6,H   8)     87.76  0.001457    0.35     88.10   
    97. D(C  12,C  10,C   6,C   1)   -170.21 -0.013811   -0.34   -170.55   
    98. D(H  13,C  10,C   6,H   9)    -51.41  0.003431   -0.42    -51.83   
    99. D(H  11,C  10,C   6,H   9)   -161.62  0.006271   -0.38   -162.00   
   100. D(H  11,C  10,C   6,C   1)    -40.21 -0.003325   -0.07    -40.29   
   101. D(H  14,C  12,C  10,H  13)   -176.01  0.010099    0.08   -175.93   
   102. D(H  14,C  12,C  10,H  11)    -58.77 -0.006571   -0.16    -58.93   
   103. D(H  15,C  12,C  10,C   6)    -49.16  0.001849    0.04    -49.12   
   104. D(H  14,C  12,C  10,C   6)     68.14  0.009431    0.13     68.26   
   105. D(C  16,C  12,C  10,H  13)    -51.43  0.011993    0.17    -51.26   
   106. D(C  16,C  12,C  10,H  11)     65.81 -0.004677   -0.07     65.74   
   107. D(C  16,C  12,C  10,C   6)   -167.28  0.011325    0.21   -167.06   
   108. D(H  15,C  12,C  10,H  13)     66.69  0.002517   -0.01     66.68   
   109. D(H  15,C  12,C  10,H  11)   -176.07 -0.014153   -0.24   -176.32   
   110. D(H  19,C  16,C  12,H  15)    -69.57  0.005840    1.07    -68.50   
   111. D(H  19,C  16,C  12,H  14)    178.15 -0.003774    1.34    179.49   
   112. D(H  19,C  16,C  12,C  10)     51.13 -0.005136    1.01     52.15   
   113. D(C  18,C  16,C  12,H  15)     52.54  0.000657    0.74     53.29   
   114. D(C  18,C  16,C  12,H  14)    -59.74 -0.008957    1.01    -58.73   
   115. D(C  18,C  16,C  12,C  10)    173.25 -0.010319    0.68    173.93   
   116. D(H  17,C  16,C  12,H  15)   -179.85  0.008003    1.19   -178.66   
   117. D(H  17,C  16,C  12,H  14)     67.86 -0.001611    1.46     69.33   
   118. D(H  17,C  16,C  12,C  10)    -59.15 -0.002973    1.14    -58.02   
   119. D(C  22,C  18,C  16,H  19)    -64.37  0.008739    0.00    -64.36   
   120. D(C  22,C  18,C  16,H  17)     52.00 -0.006520    0.02     52.02   
   121. D(C  22,C  18,C  16,C  12)    176.65  0.007226    0.38    177.04   
   122. D(H  21,C  18,C  16,H  19)     50.66  0.000421   -0.04     50.62   
   123. D(H  21,C  18,C  16,H  17)    167.03 -0.014838   -0.03    167.00   
   124. D(H  21,C  18,C  16,C  12)    -68.32 -0.001092    0.34    -67.98   
   125. D(H  20,C  18,C  16,H  19)   -173.12  0.011919   -0.10   -173.22   
   126. D(H  20,C  18,C  16,H  17)    -56.76 -0.003340   -0.08    -56.84   
   127. D(H  20,C  18,C  16,C  12)     67.90  0.010407    0.28     68.18   
   128. D(H  25,C  22,C  18,H  20)   -179.95  0.011638    2.46   -177.50   
   129. D(H  25,C  22,C  18,C  16)     62.02 -0.001596    1.96     63.98   
   130. D(H  24,C  22,C  18,H  21)     57.48 -0.009593    1.52     59.00   
   131. D(H  24,C  22,C  18,H  20)    -61.16  0.011392    2.42    -58.74   
   132. D(H  24,C  22,C  18,C  16)   -179.19 -0.001843    1.93   -177.26   
   133. D(H  23,C  22,C  18,H  21)    177.04 -0.009799    1.53    178.57   
   134. D(H  23,C  22,C  18,H  20)     58.40  0.011185    2.43     60.83   
   135. D(H  25,C  22,C  18,H  21)    -61.32 -0.009346    1.56    -59.76   
   136. D(H  23,C  22,C  18,C  16)    -59.63 -0.002049    1.94    -57.70   
    ----------------------------------------------------------------------------




    ----------------------------------------------------------------------------
                                   ERROR !!!
       The optimization did not converge but reached the maximum 
       number of optimization cycles.
       As a subsequent Frequencies calculation has been requested
       ORCA will abort at this point of the run.
       Please restart the calculation with the lowest energy geometry and/or
       a larger maxiter for the geometry optimization.
    ----------------------------------------------------------------------------


[file orca_main/run.cpp, line 12327]: ORCA finished with error return - aborting the run
