
                                 *****************
                                 * O   R   C   A *
                                 *****************

                                            #,                                       
                                            ###                                      
                                            ####                                     
                                            #####                                    
                                            ######                                   
                                           ########,                                 
                                     ,,################,,,,,                         
                               ,,#################################,,                 
                          ,,##########################################,,             
                       ,#########################################, ''#####,          
                    ,#############################################,,   '####,        
                  ,##################################################,,,,####,       
                ,###########''''           ''''###############################       
              ,#####''   ,,,,##########,,,,          '''####'''          '####       
            ,##' ,,,,###########################,,,                        '##       
           ' ,,###''''                  '''############,,,                           
         ,,##''                                '''############,,,,        ,,,,,,###''
      ,#''                                            '''#######################'''  
     '                                                          ''''####''''         
             ,#######,   #######,   ,#######,      ##                                
            ,#'     '#,  ##    ##  ,#'     '#,    #''#        ######   ,####,        
            ##       ##  ##   ,#'  ##            #'  '#       #        #'  '#        
            ##       ##  #######   ##           ,######,      #####,   #    #        
            '#,     ,#'  ##    ##  '#,     ,#' ,#      #,         ##   #,  ,#        
             '#######'   ##     ##  '#######'  #'      '#     #####' # '####'        



                  #######################################################
                  #                        -***-                        #
                  #          Department of theory and spectroscopy      #
                  #    Directorship and core code : Frank Neese         #
                  #        Max Planck Institute fuer Kohlenforschung    #
                  #                Kaiser Wilhelm Platz 1               #
                  #                 D-45470 Muelheim/Ruhr               #
                  #                      Germany                        #
                  #                                                     #
                  #                  All rights reserved                #
                  #                        -***-                        #
                  #######################################################


                         Program Version 5.0.3 -  RELEASE  -


 With contributions from (in alphabetic order):
   Daniel Aravena         : Magnetic Suceptibility
   Michael Atanasov       : Ab Initio Ligand Field Theory (pilot matlab implementation)
   Alexander A. Auer      : GIAO ZORA, VPT2 properties, NMR spectrum
   Ute Becker             : Parallelization
   Giovanni Bistoni       : ED, misc. LED, open-shell LED, HFLD
   Martin Brehm           : Molecular dynamics
   Dmytro Bykov           : SCF Hessian
   Vijay G. Chilkuri      : MRCI spin determinant printing, contributions to CSF-ICE
   Dipayan Datta          : RHF DLPNO-CCSD density
   Achintya Kumar Dutta   : EOM-CC, STEOM-CC
   Dmitry Ganyushin       : Spin-Orbit,Spin-Spin,Magnetic field MRCI
   Miquel Garcia          : C-PCM and meta-GGA Hessian, CC/C-PCM, Gaussian charge scheme
   Yang Guo               : DLPNO-NEVPT2, F12-NEVPT2, CIM, IAO-localization
   Andreas Hansen         : Spin unrestricted coupled pair/coupled cluster methods
   Benjamin Helmich-Paris : MC-RPA, TRAH-SCF, COSX integrals
   Lee Huntington         : MR-EOM, pCC
   Robert Izsak           : Overlap fitted RIJCOSX, COSX-SCS-MP3, EOM
   Marcus Kettner         : VPT2
   Christian Kollmar      : KDIIS, OOCD, Brueckner-CCSD(T), CCSD density, CASPT2, CASPT2-K
   Simone Kossmann        : Meta GGA functionals, TD-DFT gradient, OOMP2, MP2 Hessian
   Martin Krupicka        : Initial AUTO-CI
   Lucas Lang             : DCDCAS
   Marvin Lechner         : AUTO-CI (C++ implementation), FIC-MRCC
   Dagmar Lenk            : GEPOL surface, SMD
   Dimitrios Liakos       : Extrapolation schemes; Compound Job, initial MDCI parallelization
   Dimitrios Manganas     : Further ROCIS development; embedding schemes
   Dimitrios Pantazis     : SARC Basis sets
   Anastasios Papadopoulos: AUTO-CI, single reference methods and gradients
   Taras Petrenko         : DFT Hessian,TD-DFT gradient, ASA, ECA, R-Raman, ABS, FL, XAS/XES, NRVS
   Peter Pinski           : DLPNO-MP2, DLPNO-MP2 Gradient
   Christoph Reimann      : Effective Core Potentials
   Marius Retegan         : Local ZFS, SOC
   Christoph Riplinger    : Optimizer, TS searches, QM/MM, DLPNO-CCSD(T), (RO)-DLPNO pert. Triples
   Tobias Risthaus        : Range-separated hybrids, TD-DFT gradient, RPA, STAB
   Michael Roemelt        : Original ROCIS implementation
   Masaaki Saitow         : Open-shell DLPNO-CCSD energy and density
   Barbara Sandhoefer     : DKH picture change effects
   Avijit Sen             : IP-ROCIS
   Kantharuban Sivalingam : CASSCF convergence, NEVPT2, FIC-MRCI
   Bernardo de Souza      : ESD, SOC TD-DFT
   Georgi Stoychev        : AutoAux, RI-MP2 NMR, DLPNO-MP2 response
   Willem Van den Heuvel  : Paramagnetic NMR
   Boris Wezisla          : Elementary symmetry handling
   Frank Wennmohs         : Technical directorship


 We gratefully acknowledge several colleagues who have allowed us to
 interface, adapt or use parts of their codes:
   Stefan Grimme, W. Hujo, H. Kruse, P. Pracht,  : VdW corrections, initial TS optimization,
                  C. Bannwarth, S. Ehlert          DFT functionals, gCP, sTDA/sTD-DF
   Ed Valeev, F. Pavosevic, A. Kumar             : LibInt (2-el integral package), F12 methods
   Garnet Chan, S. Sharma, J. Yang, R. Olivares  : DMRG
   Ulf Ekstrom                                   : XCFun DFT Library
   Mihaly Kallay                                 : mrcc  (arbitrary order and MRCC methods)
   Jiri Pittner, Ondrej Demel                    : Mk-CCSD
   Frank Weinhold                                : gennbo (NPA and NBO analysis)
   Christopher J. Cramer and Donald G. Truhlar   : smd solvation model
   Lars Goerigk                                  : TD-DFT with DH, B97 family of functionals
   V. Asgeirsson, H. Jonsson                     : NEB implementation
   FAccTs GmbH                                   : IRC, NEB, NEB-TS, DLPNO-Multilevel, CI-OPT
                                                   MM, QMMM, 2- and 3-layer-ONIOM, Crystal-QMMM,
                                                   LR-CPCM, SF, NACMEs, symmetry and pop. for TD-DFT,
                                                   nearIR, NL-DFT gradient (VV10), updates on ESD,
                                                   ML-optimized integration grids
   S Lehtola, MJT Oliveira, MAL Marques          : LibXC Library
   Liviu Ungur et al                             : ANISO software


 Your calculation uses the libint2 library for the computation of 2-el integrals
 For citations please refer to: http://libint.valeyev.net

 Your ORCA version has been built with support for libXC version: 5.1.0
 For citations please refer to: https://tddft.org/programs/libxc/

 This ORCA versions uses:
   CBLAS   interface :  Fast vector & matrix operations
   LAPACKE interface :  Fast linear algebra routines
   SCALAPACK package :  Parallel linear algebra routines
   Shared memory     :  Shared parallel matrices
   BLAS/LAPACK       :  OpenBLAS 0.3.19 NO_AFFINITY VORTEX SINGLE_THREADED
        Core in use  :  VORTEX
   Copyright (c) 2011-2014, The OpenBLAS Project


Your calculation utilizes the atom-pairwise dispersion correction
with the Becke-Johnson damping scheme (D3BJ)
Cite in your paper:
S.Grimme, S.Ehrlich, L.Goerigk, J Comput Chem, (2011), 32, 1456–1465 
S.Grimme, J.Antony, S.Ehrlich and H.Krieg, J.Chem.Phys., 132, (2010), 154104 
   

================================================================================

----- Orbital basis set information -----
Your calculation utilizes the basis: def2-TZVP
   F. Weigend and R. Ahlrichs, Phys. Chem. Chem. Phys. 7, 3297 (2005).

----- AuxJ basis set information -----
Your calculation utilizes the auxiliary basis: def2/J
   F. Weigend, Phys. Chem. Chem. Phys. 8, 1057 (2006).

================================================================================
                                        WARNINGS
                       Please study these warnings very carefully!
================================================================================

WARNING: Old DensityContainer found on disk!
         Will remove this file - 
         If you want to keep old densities, please start your calculation with a different basename. 


WARNING: Geometry Optimization
  ===> : Switching off AutoStart
         For restart on a previous wavefunction, please use MOREAD

INFO   : the flag for use of the SHARK integral package has been found!

================================================================================
                                       INPUT FILE
================================================================================
NAME = /Users/cxs454/Desktop/DecomPoly/S-S_Curve/PDMS_1.inp
|  1> ! B3LYP def2-TZVP D3BJ OPT FREQ def2/J 
|  2> %geom
|  3> POTENTIALS
|  4> {C 2 13 1}
|  5> end
|  6> end
|  7>  
|  8> *xyz 0 1 
|  9> Si   -3.7144626992154 1.60910684636934 0.26635334288896
| 10> O   -2.08672119905437 1.78628647918742 0.29115686909346
| 11> O   -4.15133883214355 0.48806331972106 -0.87530354482308
| 12> C   -4.43535815973552 3.28385657688787 -0.11940902227633
| 13> C   -4.3295710164136 0.91726060760233 1.87948667307683
| 14> H   -4.08476845907184 3.64907755273993 -1.0881147589136
| 15> H   -4.13641051148411 4.01551583799916 0.63478644848243
| 16> H   -5.5265851281941 3.24869601531079 -0.14557067931887
| 17> H   -3.91778954897748 -0.07793028640173 2.05716353579562
| 18> H   -5.41847500353952 0.83453264348897 1.87908608602568
| 19> H   -4.0380434253101 1.55822557433818 2.71434993504575
| 20> H   -3.93618639451453 0.67504697302937 -1.79241843534017
| 21> Si   -0.67447548423781 0.93210004020127 0.27915638223866
| 22> C   0.70483283930729 2.14438790988341 0.6259411808543
| 23> C   -0.45961998532458 0.14621857394816 -1.40699350150362
| 24> C   -0.73255209748135 -0.3931457165557 1.60057401914315
| 25> H   -0.92967364705473 0.03993889692981 2.58396549479462
| 26> H   0.21849782748358 -0.92927330398506 1.65649177194896
| 27> H   -1.51450034828391 -1.12681815142546 1.39135367722107
| 28> H   0.7268258195399 2.93577727762738 -0.12686285666873
| 29> H   1.67897559513365 1.64907943186944 0.6222006456784
| 30> H   0.57160049433939 2.61601376905445 1.60236260028949
| 31> H   -0.4478230478407 0.90442519631382 -2.19405144026234
| 32> H   -1.27819008299923 -0.54687743794637 -1.615224749734
| 33> H   0.47734249507282 -0.412894626188 -1.47015967373668
| 34> *
| 35> 
| 36>                          ****END OF INPUT****
================================================================================

                       *****************************
                       * Geometry Optimization Run *
                       *****************************

Geometry optimization settings:
Update method            Update   .... BFGS
Choice of coordinates    CoordSys .... Z-matrix Internals
Initial Hessian          InHess   .... Almoef's Model

Convergence Tolerances:
Energy Change            TolE     ....  5.0000e-06 Eh
Max. Gradient            TolMAXG  ....  3.0000e-04 Eh/bohr
RMS Gradient             TolRMSG  ....  1.0000e-04 Eh/bohr
Max. Displacement        TolMAXD  ....  4.0000e-03 bohr
RMS Displacement         TolRMSD  ....  2.0000e-03 bohr
Strict Convergence                ....  False
------------------------------------------------------------------------------
                        ORCA OPTIMIZATION COORDINATE SETUP
------------------------------------------------------------------------------

The optimization will be done in new redundant internal coordinates
Making redundant internal coordinates   ...  (new redundants) done
Evaluating the initial hessian          ...  (Almloef) done
Evaluating the coordinates              ...  done
Calculating the B-matrix                .... done
Calculating the G-matrix                .... done
Diagonalizing the G-matrix              .... done
Small eigenvalue found = 1.144e-02
Small eigenvalue found = 1.756e-02
The first mode is                       ....   53
The number of degrees of freedom        ....   69

    -----------------------------------------------------------------
                    Redundant Internal Coordinates


    -----------------------------------------------------------------
         Definition                    Initial Value    Approx d2E/dq
    -----------------------------------------------------------------
      1. B(O   1,Si  0)                  1.6375         0.979737   
      2. B(O   2,Si  0)                  1.6586         0.906783   
      3. B(C   3,Si  0)                  1.8637         0.476642   
      4. B(C   4,Si  0)                  1.8599         0.483310   
      5. B(H   5,C   3)                  1.0930         0.356128   
      6. B(H   6,C   3)                  1.0925         0.356838   
      7. B(H   7,C   3)                  1.0921         0.357324   
      8. B(H   8,C   4)                  1.0916         0.358021   
      9. B(H   9,C   4)                  1.0920         0.357409   
     10. B(H  10,C   4)                  1.0922         0.357249   
     11. B(H  11,O   2)                  0.9604         0.519208   
     12. B(Si 12,O   1)                  1.6505         0.934129   
     13. B(C  13,Si 12)                  1.8688         0.467764   
     14. B(C  14,Si 12)                  1.8727         0.461160   
     15. B(C  15,Si 12)                  1.8724         0.461649   
     16. B(H  16,C  15)                  1.0925         0.356855   
     17. B(H  17,C  15)                  1.0932         0.355910   
     18. B(H  18,C  15)                  1.0925         0.356847   
     19. B(H  19,C  13)                  1.0925         0.356845   
     20. B(H  20,C  13)                  1.0928         0.356363   
     21. B(H  21,C  13)                  1.0925         0.356793   
     22. B(H  22,C  14)                  1.0929         0.356256   
     23. B(H  23,C  14)                  1.0926         0.356662   
     24. B(H  24,C  14)                  1.0929         0.356245   
     25. A(O   1,Si  0,C   3)          106.8821         0.523936   
     26. A(O   2,Si  0,C   4)          104.9791         0.517731   
     27. A(O   1,Si  0,O   2)          110.2049         0.588805   
     28. A(O   2,Si  0,C   3)          111.2854         0.516385   
     29. A(C   3,Si  0,C   4)          112.6979         0.462086   
     30. A(O   1,Si  0,C   4)          110.8457         0.525306   
     31. A(Si  0,O   1,Si 12)          142.5995         0.592178   
     32. A(Si  0,O   2,H  11)          117.8205         0.427048   
     33. A(H   5,C   3,H   7)          108.0606         0.289981   
     34. A(H   6,C   3,H   7)          108.1509         0.290072   
     35. A(Si  0,C   3,H   7)          111.2556         0.362504   
     36. A(H   5,C   3,H   6)          107.4746         0.289919   
     37. A(Si  0,C   3,H   5)          111.0783         0.362297   
     38. A(Si  0,C   3,H   6)          110.6763         0.362420   
     39. A(H   8,C   4,H   9)          107.8873         0.290233   
     40. A(Si  0,C   4,H   9)          110.9549         0.363380   
     41. A(H   9,C   4,H  10)          108.1134         0.290135   
     42. A(Si  0,C   4,H   8)          110.8272         0.363487   
     43. A(H   8,C   4,H  10)          108.0555         0.290213   
     44. A(Si  0,C   4,H  10)          110.8798         0.363352   
     45. A(O   1,Si 12,C  13)          107.1248         0.517441   
     46. A(C  14,Si 12,C  15)          109.9976         0.455485   
     47. A(C  13,Si 12,C  15)          110.5530         0.456666   
     48. A(O   1,Si 12,C  15)          109.5499         0.516167   
     49. A(C  13,Si 12,C  14)          110.7711         0.456578   
     50. A(O   1,Si 12,C  14)          108.7779         0.516065   
     51. A(H  20,C  13,H  21)          107.9038         0.289943   
     52. A(H  19,C  13,H  21)          107.7942         0.290005   
     53. A(Si 12,C  13,H  21)          110.8472         0.361251   
     54. A(H  19,C  13,H  20)          107.9398         0.289950   
     55. A(Si 12,C  13,H  20)          111.3007         0.361177   
     56. A(Si 12,C  13,H  19)          110.9104         0.361260   
     57. A(H  22,C  14,H  24)          107.6996         0.289860   
     58. A(H  23,C  14,H  24)          107.8631         0.289912   
     59. A(Si 12,C  14,H  24)          111.4128         0.360282   
     60. A(H  22,C  14,H  23)          108.1144         0.289913   
     61. A(Si 12,C  14,H  23)          110.6007         0.360354   
     62. A(Si 12,C  14,H  22)          111.0093         0.360284   
     63. A(H  16,C  15,H  18)          108.0274         0.290013   
     64. A(Si 12,C  15,H  18)          111.2461         0.360451   
     65. A(H  16,C  15,H  17)          107.7794         0.289893   
     66. A(Si 12,C  15,H  17)          110.8690         0.360289   
     67. A(Si 12,C  15,H  16)          111.1180         0.360452   
     68. A(H  17,C  15,H  18)          107.6461         0.289892   
     69. D(Si 12,O   1,Si  0,O   2)    -44.8947         0.012336   
     70. D(Si 12,O   1,Si  0,C   4)     70.8806         0.012336   
     71. D(Si 12,O   1,Si  0,C   3)   -165.9542         0.012336   
     72. D(H  11,O   2,Si  0,C   4)    178.6582         0.010691   
     73. D(H  11,O   2,Si  0,C   3)     56.4547         0.010691   
     74. D(H  11,O   2,Si  0,O   1)    -61.9359         0.010691   
     75. D(H   6,C   3,Si  0,O   2)   -179.6418         0.003986   
     76. D(H   5,C   3,Si  0,O   1)     60.0322         0.003986   
     77. D(H   7,C   3,Si  0,O   1)   -179.5411         0.003986   
     78. D(H   6,C   3,Si  0,O   1)    -59.2711         0.003986   
     79. D(H   5,C   3,Si  0,O   2)    -60.3385         0.003986   
     80. D(H   6,C   3,Si  0,C   4)     62.7367         0.003986   
     81. D(H   7,C   3,Si  0,O   2)     60.0882         0.003986   
     82. D(H   7,C   3,Si  0,C   4)    -57.5333         0.003986   
     83. D(H   5,C   3,Si  0,C   4)   -177.9600         0.003986   
     84. D(H  10,C   4,Si  0,C   3)    -62.0930         0.004058   
     85. D(H  10,C   4,Si  0,O   2)    176.6257         0.004058   
     86. D(H  10,C   4,Si  0,O   1)     57.6492         0.004058   
     87. D(H   9,C   4,Si  0,O   2)    -63.2154         0.004058   
     88. D(H   9,C   4,Si  0,C   3)     58.0660         0.004058   
     89. D(H   9,C   4,Si  0,O   1)    177.8081         0.004058   
     90. D(H   8,C   4,Si  0,C   3)    177.9056         0.004058   
     91. D(H   8,C   4,Si  0,O   2)     56.6242         0.004058   
     92. D(H   8,C   4,Si  0,O   1)    -62.3523         0.004058   
     93. D(C  13,Si 12,O   1,Si  0)   -170.6464         0.011290   
     94. D(C  14,Si 12,O   1,Si  0)     69.5711         0.011290   
     95. D(C  15,Si 12,O   1,Si  0)    -50.6963         0.011290   
     96. D(H  20,C  13,Si 12,O   1)   -179.3428         0.003892   
     97. D(H  19,C  13,Si 12,C  15)   -178.4584         0.003892   
     98. D(H  19,C  13,Si 12,C  14)     59.3450         0.003892   
     99. D(H  19,C  13,Si 12,O   1)    -59.1520         0.003892   
    100. D(H  21,C  13,Si 12,C  15)    -58.7518         0.003892   
    101. D(H  21,C  13,Si 12,C  14)    179.0515         0.003892   
    102. D(H  21,C  13,Si 12,O   1)     60.5545         0.003892   
    103. D(H  20,C  13,Si 12,C  15)     61.3509         0.003892   
    104. D(H  20,C  13,Si 12,C  14)    -60.8458         0.003892   
    105. D(H  24,C  14,Si 12,C  15)    -61.3420         0.003824   
    106. D(H  24,C  14,Si 12,C  13)     61.1785         0.003824   
    107. D(H  24,C  14,Si 12,O   1)    178.6679         0.003824   
    108. D(H  23,C  14,Si 12,C  15)     58.6184         0.003824   
    109. D(H  23,C  14,Si 12,C  13)   -178.8611         0.003824   
    110. D(H  23,C  14,Si 12,O   1)    -61.3717         0.003824   
    111. D(H  22,C  14,Si 12,C  15)    178.6296         0.003824   
    112. D(H  22,C  14,Si 12,C  13)    -58.8499         0.003824   
    113. D(H  22,C  14,Si 12,O   1)     58.6395         0.003824   
    114. D(H  18,C  15,Si 12,C  14)    -55.5006         0.003829   
    115. D(H  18,C  15,Si 12,C  13)   -178.1498         0.003829   
    116. D(H  18,C  15,Si 12,O   1)     64.0202         0.003829   
    117. D(H  17,C  15,Si 12,C  14)     64.2553         0.003829   
    118. D(H  17,C  15,Si 12,C  13)    -58.3939         0.003829   
    119. D(H  17,C  15,Si 12,O   1)   -176.2239         0.003829   
    120. D(H  16,C  15,Si 12,C  14)   -175.9056         0.003829   
    121. D(H  16,C  15,Si 12,C  13)     61.4452         0.003829   
    122. D(H  16,C  15,Si 12,O   1)    -56.3849         0.003829   
    -----------------------------------------------------------------

Number of atoms                         .... 25
Number of degrees of freedom            .... 122

         *************************************************************
         *                GEOMETRY OPTIMIZATION CYCLE   1            *
         *************************************************************
---------------------------------
CARTESIAN COORDINATES (ANGSTROEM)
---------------------------------
  Si    -3.714463    1.609107    0.266353
  O     -2.086721    1.786286    0.291157
  O     -4.151339    0.488063   -0.875304
  C     -4.435358    3.283857   -0.119409
  C     -4.329571    0.917261    1.879487
  H     -4.084768    3.649078   -1.088115
  H     -4.136411    4.015516    0.634786
  H     -5.526585    3.248696   -0.145571
  H     -3.917790   -0.077930    2.057164
  H     -5.418475    0.834533    1.879086
  H     -4.038043    1.558226    2.714350
  H     -3.936186    0.675047   -1.792418
  Si    -0.674475    0.932100    0.279156
  C      0.704833    2.144388    0.625941
  C     -0.459620    0.146219   -1.406994
  C     -0.732552   -0.393146    1.600574
  H     -0.929674    0.039939    2.583965
  H      0.218498   -0.929273    1.656492
  H     -1.514500   -1.126818    1.391354
  H      0.726826    2.935777   -0.126863
  H      1.678976    1.649079    0.622201
  H      0.571600    2.616014    1.602363
  H     -0.447823    0.904425   -2.194051
  H     -1.278190   -0.546877   -1.615225
  H      0.477342   -0.412895   -1.470160

----------------------------
CARTESIAN COORDINATES (A.U.)
----------------------------
  NO LB      ZA    FRAG     MASS         X           Y           Z
   0 Si   14.0000    0    28.086   -7.019317    3.040771    0.503335
   1 O     8.0000    0    15.999   -3.943332    3.375592    0.550207
   2 O     8.0000    0    15.999   -7.844893    0.922306   -1.654084
   3 C     6.0000    0    12.011   -8.381612    6.205590   -0.225650
   4 C     6.0000    0    12.011   -8.181703    1.733371    3.551715
   5 H     1.0000    0     1.008   -7.719094    6.895757   -2.056239
   6 H     1.0000    0     1.008   -7.816683    7.588225    1.199573
   7 H     1.0000    0     1.008  -10.443732    6.139146   -0.275089
   8 H     1.0000    0     1.008   -7.403549   -0.147267    3.887476
   9 H     1.0000    0     1.008  -10.239434    1.577038    3.550958
  10 H     1.0000    0     1.008   -7.630796    2.944620    5.129378
  11 H     1.0000    0     1.008   -7.438314    1.275654   -3.387180
  12 Si   14.0000    0    28.086   -1.274574    1.761414    0.527529
  13 C     6.0000    0    12.011    1.331941    4.052306    1.182857
  14 C     6.0000    0    12.011   -0.868556    0.276313   -2.658832
  15 C     6.0000    0    12.011   -1.384323   -0.742938    3.024647
  16 H     1.0000    0     1.008   -1.756829    0.075474    4.882987
  17 H     1.0000    0     1.008    0.412901   -1.756072    3.130316
  18 H     1.0000    0     1.008   -2.861991   -2.129378    2.629277
  19 H     1.0000    0     1.008    1.373502    5.547815   -0.239736
  20 H     1.0000    0     1.008    3.172804    3.116308    1.175789
  21 H     1.0000    0     1.008    1.080168    4.943550    3.028026
  22 H     1.0000    0     1.008   -0.846263    1.709116   -4.146156
  23 H     1.0000    0     1.008   -2.415429   -1.033449   -3.052332
  24 H     1.0000    0     1.008    0.902047   -0.780258   -2.778199

--------------------------------
INTERNAL COORDINATES (ANGSTROEM)
--------------------------------
 Si     0   0   0     0.000000000000     0.00000000     0.00000000
 O      1   0   0     1.637543962324     0.00000000     0.00000000
 O      1   2   0     1.658607787701   110.20494059     0.00000000
 C      1   2   3     1.863676347236   106.88210854   238.94046970
 C      1   2   3     1.859894782224   110.84573068   115.77527536
 H      4   1   2     1.093018894442   111.07829109    60.03218448
 H      4   1   2     1.092476900844   110.67632287   300.72888789
 H      4   1   2     1.092106677061   111.25559910   180.45886795
 H      5   1   2     1.091575906650   110.82721444   297.64770189
 H      5   1   2     1.092042109854   110.95490964   177.80813505
 H      5   1   2     1.092163491032   110.87978222    57.64918494
 H      3   1   2     0.960392201359   117.82053444   298.06405925
 Si     2   1   3     1.650520052362   142.59950112   315.10530493
 C     13   2   1     1.868794538447   107.12484848   189.35356425
 C     13   2   1     1.872664944633   108.77789287    69.57108878
 C     13   2   1     1.872376505922   109.54988227   309.30365377
 H     16  13   2     1.092464178876   111.11802845   303.61513046
 H     16  13   2     1.093185960785   110.86903722   183.77606224
 H     16  13   2     1.092470347467   111.24606298    64.02017575
 H     14  13   2     1.092471849280   110.91044248   300.84795151
 H     14  13   2     1.092839690314   111.30072877   180.65719227
 H     14  13   2     1.092511142788   110.84718477    60.55454630
 H     15  13   2     1.092921154016   111.00926562    58.63953001
 H     15  13   2     1.092611247998   110.60074063   298.62832315
 H     15  13   2     1.092930110096   111.41279468   178.66791197

---------------------------
INTERNAL COORDINATES (A.U.)
---------------------------
 Si     0   0   0     0.000000000000     0.00000000     0.00000000
 O      1   0   0     3.094509621049     0.00000000     0.00000000
 O      1   2   0     3.134314482344   110.20494059     0.00000000
 C      1   2   3     3.521837898543   106.88210854   238.94046970
 C      1   2   3     3.514691776313   110.84573068   115.77527536
 H      4   1   2     2.065506369697   111.07829109    60.03218448
 H      4   1   2     2.064482150230   110.67632287   300.72888789
 H      4   1   2     2.063782528672   111.25559910   180.45886795
 H      5   1   2     2.062779517955   110.82721444   297.64770189
 H      5   1   2     2.063660514334   110.95490964   177.80813505
 H      5   1   2     2.063889891517   110.87978222    57.64918494
 H      3   1   2     1.814878241721   117.82053444   298.06405925
 Si     2   1   3     3.119030877510   142.59950112   315.10530493
 C     13   2   1     3.531509878233   107.12484848   189.35356425
 C     13   2   1     3.538823885951   108.77789287    69.57108878
 C     13   2   1     3.538278815782   109.54988227   309.30365377
 H     16  13   2     2.064458109196   111.11802845   303.61513046
 H     16  13   2     2.065822079331   110.86903722   183.77606224
 H     16  13   2     2.064469766143   111.24606298    64.02017575
 H     14  13   2     2.064472604157   110.91044248   300.84795151
 H     14  13   2     2.065167722972   111.30072877   180.65719227
 H     14  13   2     2.064546858127   110.84718477    60.55454630
 H     15  13   2     2.065321667060   111.00926562    58.63953001
 H     15  13   2     2.064736029557   110.60074063   298.62832315
 H     15  13   2     2.065338591597   111.41279468   178.66791197

---------------------
BASIS SET INFORMATION
---------------------
There are 4 groups of distinct atoms

 Group   1 Type Si  : 14s9p3d1f contracted to 5s5p2d1f pattern {73211/51111/21/1}
 Group   2 Type O   : 11s6p2d1f contracted to 5s3p2d1f pattern {62111/411/11/1}
 Group   3 Type C   : 11s6p2d1f contracted to 5s3p2d1f pattern {62111/411/11/1}
 Group   4 Type H   : 5s1p contracted to 3s1p pattern {311/1}

Atom   0Si   basis set group =>   1
Atom   1O    basis set group =>   2
Atom   2O    basis set group =>   2
Atom   3C    basis set group =>   3
Atom   4C    basis set group =>   3
Atom   5H    basis set group =>   4
Atom   6H    basis set group =>   4
Atom   7H    basis set group =>   4
Atom   8H    basis set group =>   4
Atom   9H    basis set group =>   4
Atom  10H    basis set group =>   4
Atom  11H    basis set group =>   4
Atom  12Si   basis set group =>   1
Atom  13C    basis set group =>   3
Atom  14C    basis set group =>   3
Atom  15C    basis set group =>   3
Atom  16H    basis set group =>   4
Atom  17H    basis set group =>   4
Atom  18H    basis set group =>   4
Atom  19H    basis set group =>   4
Atom  20H    basis set group =>   4
Atom  21H    basis set group =>   4
Atom  22H    basis set group =>   4
Atom  23H    basis set group =>   4
Atom  24H    basis set group =>   4
---------------------------------
AUXILIARY/J BASIS SET INFORMATION
---------------------------------
There are 4 groups of distinct atoms

 Group   1 Type Si  : 14s5p5d2f1g contracted to 8s4p3d1f1g pattern {71111111/2111/311/2/1}
 Group   2 Type O   : 12s5p4d2f1g contracted to 6s4p3d1f1g pattern {711111/2111/211/2/1}
 Group   3 Type C   : 12s5p4d2f1g contracted to 6s4p3d1f1g pattern {711111/2111/211/2/1}
 Group   4 Type H   : 5s2p1d contracted to 3s1p1d pattern {311/2/1}

Atom   0Si   basis set group =>   1
Atom   1O    basis set group =>   2
Atom   2O    basis set group =>   2
Atom   3C    basis set group =>   3
Atom   4C    basis set group =>   3
Atom   5H    basis set group =>   4
Atom   6H    basis set group =>   4
Atom   7H    basis set group =>   4
Atom   8H    basis set group =>   4
Atom   9H    basis set group =>   4
Atom  10H    basis set group =>   4
Atom  11H    basis set group =>   4
Atom  12Si   basis set group =>   1
Atom  13C    basis set group =>   3
Atom  14C    basis set group =>   3
Atom  15C    basis set group =>   3
Atom  16H    basis set group =>   4
Atom  17H    basis set group =>   4
Atom  18H    basis set group =>   4
Atom  19H    basis set group =>   4
Atom  20H    basis set group =>   4
Atom  21H    basis set group =>   4
Atom  22H    basis set group =>   4
Atom  23H    basis set group =>   4
Atom  24H    basis set group =>   4
------------------------------------------------------------------------------
                           ORCA GTO INTEGRAL CALCULATION
                           -- RI-GTO INTEGRALS CHOSEN --
------------------------------------------------------------------------------
------------------------------------------------------------------------------
                   ___                                                        
                  /   \      - P O W E R E D   B Y -                         
                 /     \                                                     
                 |  |  |   _    _      __       _____    __    __             
                 |  |  |  | |  | |    /  \     |  _  \  |  |  /  |          
                  \  \/   | |  | |   /    \    | | | |  |  | /  /          
                 / \  \   | |__| |  /  /\  \   | |_| |  |  |/  /          
                |  |  |   |  __  | /  /__\  \  |    /   |      \           
                |  |  |   | |  | | |   __   |  |    \   |  |\   \          
                \     /   | |  | | |  |  |  |  | |\  \  |  | \   \       
                 \___/    |_|  |_| |__|  |__|  |_| \__\ |__|  \__/        
                                                                              
                      - O R C A' S   B I G   F R I E N D -                    
                                      &                                       
                       - I N T E G R A L  F E E D E R -                       
                                                                              
 v1 FN, 2020, v2 2021                                                         
------------------------------------------------------------------------------


Reading SHARK input file /Users/cxs454/Desktop/DecomPoly/S-S_Curve/PDMS_1.SHARKINP.tmp ... ok
----------------------
SHARK INTEGRAL PACKAGE
----------------------

Number of atoms                             ...     25
Number of basis functions                   ...    387
Number of shells                            ...    167
Maximum angular momentum                    ...      3
Integral batch strategy                     ... SHARK/LIBINT Hybrid
RI-J (if used) integral strategy            ... SPLIT-RIJ (Revised 2003 algorithm where possible)
Printlevel                                  ...      1
Contraction scheme used                     ... SEGMENTED contraction
Coulomb Range Separation                    ... NOT USED
Exchange Range Separation                   ... NOT USED
Finite Nucleus Model                        ... NOT USED
Auxiliary Coulomb fitting basis             ... AVAILABLE
   # of basis functions in Aux-J            ...    621
   # of shells in Aux-J                     ...    219
   Maximum angular momentum in Aux-J        ...      4
Auxiliary J/K fitting basis                 ... NOT available
Auxiliary Correlation fitting basis         ... NOT available
Auxiliary 'external' fitting basis          ... NOT available
Integral threshold                          ...     2.500000e-11
Primitive cut-off                           ...     2.500000e-12
Primitive pair pre-selection threshold      ...     2.500000e-12

Calculating pre-screening integrals         ... done (  0.0 sec) Dimension = 167
Organizing shell pair data                  ... done (  0.1 sec)
Shell pair information
Total number of shell pairs                 ...     14028
Shell pairs after pre-screening             ...     11827
Total number of primitive shell pairs       ...     42469
Primitive shell pairs kept                  ...     25308
          la=0 lb=0:   3571 shell pairs
          la=1 lb=0:   3644 shell pairs
          la=1 lb=1:    973 shell pairs
          la=2 lb=0:   1454 shell pairs
          la=2 lb=1:    766 shell pairs
          la=2 lb=2:    162 shell pairs
          la=3 lb=0:    708 shell pairs
          la=3 lb=1:    362 shell pairs
          la=3 lb=2:    147 shell pairs
          la=3 lb=3:     40 shell pairs

Calculating one electron integrals          ... done (  0.0 sec)
Calculating RI/J V-Matrix + Cholesky decomp.... done (  0.0 sec)
Calculating Nuclear repulsion               ... done (  0.0 sec) ENN=    693.809286289536 Eh

SHARK setup successfully completed in   0.3 seconds

Maximum memory used throughout the entire GTOINT-calculation: 133.4 MB
-------------------------------------------------------------------------------
                                 ORCA SCF
-------------------------------------------------------------------------------

------------
SCF SETTINGS
------------
Hamiltonian:
 Density Functional     Method          .... DFT(GTOs)
 Exchange Functional    Exchange        .... B88
   X-Alpha parameter    XAlpha          ....  0.666667
   Becke's b parameter  XBeta           ....  0.004200
 Correlation Functional Correlation     .... LYP
 LDA part of GGA corr.  LDAOpt          .... VWN-5
 Gradients option       PostSCFGGA      .... off
 Hybrid DFT is turned on
   Fraction HF Exchange ScalHFX         ....  0.200000
   Scaling of DF-GGA-X  ScalDFX         ....  0.720000
   Scaling of DF-GGA-C  ScalDFC         ....  0.810000
   Scaling of DF-LDA-C  ScalLDAC        ....  1.000000
   Perturbative correction              ....  0.000000
   Density functional embedding theory  .... OFF
   NL short-range parameter             ....  4.800000
 RI-approximation to the Coulomb term is turned on
   Number of AuxJ basis functions       .... 621
   RIJ-COSX (HFX calculated with COS-X)).... on


General Settings:
 Integral files         IntName         .... /Users/cxs454/Desktop/DecomPoly/S-S_Curve/PDMS_1
 Hartree-Fock type      HFTyp           .... RHF
 Total Charge           Charge          ....    0
 Multiplicity           Mult            ....    1
 Number of Electrons    NEL             ....   90
 Basis Dimension        Dim             ....  387
 Nuclear Repulsion      ENuc            ....    693.8092862895 Eh

Convergence Acceleration:
 DIIS                   CNVDIIS         .... on
   Start iteration      DIISMaxIt       ....    12
   Startup error        DIISStart       ....  0.200000
   # of expansion vecs  DIISMaxEq       ....     5
   Bias factor          DIISBfac        ....   1.050
   Max. coefficient     DIISMaxC        ....  10.000
 Trust-Rad. Augm. Hess. CNVTRAH         .... auto
   Auto Start mean grad. ratio tolernc. ....  1.125000
   Auto Start start iteration           ....    20
   Auto Start num. interpolation iter.  ....    10
   Max. Number of Micro iterations      ....    16
   Max. Number of Macro iterations      .... Maxiter - #DIIS iter
   Number of Davidson start vectors     ....     2
   Converg. threshold I  (grad. norm)   ....   1.000e-05
   Converg. threshold II (energy diff.) ....   1.000e-08
   Grad. Scal. Fac. for Micro threshold ....   0.100
   Minimum threshold for Micro iter.    ....   0.010
   NR start threshold (gradient norm)   ....   0.001
   Initial trust radius                 ....   0.400
   Minimum AH scaling param. (alpha)    ....   1.000
   Maximum AH scaling param. (alpha)    .... 1000.000
   Orbital update algorithm             .... Taylor
   White noise on init. David. guess    .... on
   Maximum white noise                  ....   0.010
   Quad. conv. algorithm                .... NR
 SOSCF                  CNVSOSCF        .... on
   Start iteration      SOSCFMaxIt      ....   150
   Startup grad/error   SOSCFStart      ....  0.003300
 Level Shifting         CNVShift        .... on
   Level shift para.    LevelShift      ....    0.2500
   Turn off err/grad.   ShiftErr        ....    0.0010
 Zerner damping         CNVZerner       .... off
 Static damping         CNVDamp         .... on
   Fraction old density DampFac         ....    0.7000
   Max. Damping (<1)    DampMax         ....    0.9800
   Min. Damping (>=0)   DampMin         ....    0.0000
   Turn off err/grad.   DampErr         ....    0.1000
 Fernandez-Rico         CNVRico         .... off

SCF Procedure:
 Maximum # iterations   MaxIter         ....   125
 SCF integral mode      SCFMode         .... Direct
   Integral package                     .... SHARK and LIBINT hybrid scheme
 Reset frequency        DirectResetFreq ....    20
 Integral Threshold     Thresh          ....  2.500e-11 Eh
 Primitive CutOff       TCut            ....  2.500e-12 Eh

Convergence Tolerance:
 Convergence Check Mode ConvCheckMode   .... Total+1el-Energy
 Convergence forced     ConvForced      .... 0
 Energy Change          TolE            ....  1.000e-08 Eh
 1-El. energy change                    ....  1.000e-05 Eh
 Orbital Gradient       TolG            ....  1.000e-05
 Orbital Rotation angle TolX            ....  1.000e-05
 DIIS Error             TolErr          ....  5.000e-07


Diagonalization of the overlap matrix:
Smallest eigenvalue                        ... 3.908e-04
Time for diagonalization                   ...    0.015 sec
Threshold for overlap eigenvalues          ... 1.000e-08
Number of eigenvalues below threshold      ... 0
Time for construction of square roots      ...    0.007 sec
Total time needed                          ...    0.022 sec

Time for model grid setup =    0.207 sec

------------------------------
INITIAL GUESS: MODEL POTENTIAL
------------------------------
Loading Hartree-Fock densities                     ... done
Calculating cut-offs                               ... done
Initializing the effective Hamiltonian             ... done
Setting up the integral package (SHARK)            ... done
Starting the Coulomb interaction                   ... done (   0.3 sec)
Reading the grid                                   ... done
Mapping shells                                     ... done
Starting the XC term evaluation                    ... done (   0.3 sec)
  promolecular density results
     # of electrons  =     89.993818323
     EX              =    -87.600806462
     EC              =     -3.148101357
     EX+EC           =    -90.748907819
Transforming the Hamiltonian                       ... done (   0.0 sec)
Diagonalizing the Hamiltonian                      ... done (   0.0 sec)
Back transforming the eigenvectors                 ... done (   0.0 sec)
Now organizing SCF variables                       ... done
                      ------------------
                      INITIAL GUESS DONE (   0.9 sec)
                      ------------------
-------------------
DFT GRID GENERATION
-------------------

General Integration Accuracy     IntAcc      ... 4.388
Radial Grid Type                 RadialGrid  ... OptM3 with GC (2021)
Angular Grid (max. ang.)         AngularGrid ... 4 (Lebedev-302)
Angular grid pruning method      GridPruning ... 4 (adaptive)
Weight generation scheme         WeightScheme... Becke
Basis function cutoff            BFCut       ... 1.0000e-11
Integration weight cutoff        WCut        ... 1.0000e-14
Angular grids for H and He will be reduced by one unit
Partially contracted basis set               ... off
Rotationally invariant grid construction     ... off

Total number of grid points                  ...   107972
Total number of batches                      ...     1699
Average number of points per batch           ...       63
Average number of grid points per atom       ...     4319
Time for grid setup =    0.838 sec

--------------------
COSX GRID GENERATION
--------------------

GRIDX 1
-------
General Integration Accuracy     IntAcc      ... 3.816
Radial Grid Type                 RadialGrid  ... OptM3 with GC (2021)
Angular Grid (max. ang.)         AngularGrid ... 1 (Lebedev-50)
Angular grid pruning method      GridPruning ... 4 (adaptive)
Weight generation scheme         WeightScheme... Becke
Basis function cutoff            BFCut       ... 1.0000e-11
Integration weight cutoff        WCut        ... 1.0000e-14
Angular grids for H and He will be reduced by one unit
Partially contracted basis set               ... on
Rotationally invariant grid construction     ... off

Total number of grid points                  ...    13708
Total number of batches                      ...      227
Average number of points per batch           ...       60
Average number of grid points per atom       ...      548
UseSFitting                                  ... on

GRIDX 2
-------
General Integration Accuracy     IntAcc      ... 4.020
Radial Grid Type                 RadialGrid  ... OptM3 with GC (2021)
Angular Grid (max. ang.)         AngularGrid ... 2 (Lebedev-110)
Angular grid pruning method      GridPruning ... 4 (adaptive)
Weight generation scheme         WeightScheme... Becke
Basis function cutoff            BFCut       ... 1.0000e-11
Integration weight cutoff        WCut        ... 1.0000e-14
Angular grids for H and He will be reduced by one unit
Partially contracted basis set               ... on
Rotationally invariant grid construction     ... off

Total number of grid points                  ...    28436
Total number of batches                      ...      458
Average number of points per batch           ...       62
Average number of grid points per atom       ...     1137
UseSFitting                                  ... on

GRIDX 3
-------
General Integration Accuracy     IntAcc      ... 4.338
Radial Grid Type                 RadialGrid  ... OptM3 with GC (2021)
Angular Grid (max. ang.)         AngularGrid ... 3 (Lebedev-194)
Angular grid pruning method      GridPruning ... 4 (adaptive)
Weight generation scheme         WeightScheme... Becke
Basis function cutoff            BFCut       ... 1.0000e-11
Integration weight cutoff        WCut        ... 1.0000e-14
Angular grids for H and He will be reduced by one unit
Partially contracted basis set               ... on
Rotationally invariant grid construction     ... off

Total number of grid points                  ...    62954
Total number of batches                      ...      994
Average number of points per batch           ...       63
Average number of grid points per atom       ...     2518
UseSFitting                                  ... on

Time for X-Grid setup             =    1.272 sec

--------------
SCF ITERATIONS
--------------
ITER       Energy         Delta-E        Max-DP      RMS-DP      [F,P]     Damp
               ***  Starting incremental Fock matrix formation  ***
  0   -929.0481442048   0.000000000000 0.05962801  0.00116632  0.3656053 0.7000
  1   -929.3666743234  -0.318530118576 0.03253121  0.00085515  0.1465194 0.7000
                               ***Turning on DIIS***
  2   -929.4844515964  -0.117777273004 0.05024737  0.00132021  0.0465848 0.0000
  3   -929.6545534003  -0.170101803927 0.03159533  0.00061166  0.0802013 0.0000
  4   -929.7034627725  -0.048909372165 0.01163594  0.00022309  0.0206769 0.0000
  5   -929.7067652113  -0.003302438831 0.00468341  0.00009324  0.0093468 0.0000
                      *** Initiating the SOSCF procedure ***
                           *** Shutting down DIIS ***
                      *** Re-Reading the Fockian *** 
                      *** Removing any level shift *** 
ITER      Energy       Delta-E        Grad      Rot      Max-DP    RMS-DP
  6   -929.70703593  -0.0002707139  0.000298  0.000298  0.001947  0.000040
               *** Restarting incremental Fock matrix formation ***
  7   -929.70697474   0.0000611866  0.000144  0.000425  0.001390  0.000028
  8   -929.70697564  -0.0000009017  0.000097  0.000087  0.000358  0.000006
  9   -929.70697679  -0.0000011475  0.000030  0.000062  0.000279  0.000005
 10   -929.70697682  -0.0000000347  0.000026  0.000023  0.000084  0.000001
 11   -929.70697692  -0.0000001021  0.000005  0.000014  0.000049  0.000001
 12   -929.70697691   0.0000000181  0.000003  0.000003  0.000017  0.000000
                  ***Gradient check signals convergence***
              ***Rediagonalizing the Fockian in SOSCF/NRSCF***

               *****************************************************
               *                     SUCCESS                       *
               *           SCF CONVERGED AFTER  13 CYCLES          *
               *****************************************************

Old exchange energy                            =    -17.816140593 Eh
New exchange energy                            =    -17.816153896 Eh
Exchange energy change after final integration =     -0.000013303 Eh
Total energy after final integration           =   -929.706990204 Eh
Final COS-X integration done in                =    25.607 sec

----------------
TOTAL SCF ENERGY
----------------

Total Energy       :         -929.82961173 Eh          -25301.95006 eV
SCF Energy         :         -929.70699020 Eh          -25298.61336 eV
External Potential :           -0.12262153 Eh              -3.33670 eV

Components:
Nuclear Repulsion  :          693.80928629 Eh           18879.51050 eV
External Potential :           -0.12262153 Eh              -3.33670 eV
Electronic Energy  :        -1623.51627649 Eh          -44178.12386 eV
One Electron Energy:        -2659.99953787 Eh          -72382.26727 eV
Two Electron Energy:         1036.48326137 Eh           28204.14341 eV
Max COSX asymmetry :            0.00000230 Eh               0.00006 eV

Virial components:
Potential Energy   :        -1856.57051079 Eh          -50519.85198 eV
Kinetic Energy     :          926.86352059 Eh           25221.23862 eV
Virial Ratio       :            2.00306784


DFT components:
N(Alpha)           :       45.000066341471 electrons
N(Beta)            :       45.000066341471 electrons
N(Total)           :       90.000132682942 electrons
E(X)               :      -70.669020854093 Eh       
E(C)               :       -3.726237337288 Eh       
E(XC)              :      -74.395258191381 Eh       
DFET-embed. en.    :        0.000000000000 Eh       

---------------
SCF CONVERGENCE
---------------

  Last Energy change         ...    5.0970e-09  Tolerance :   1.0000e-08
  Last MAX-Density change    ...    3.3307e-15  Tolerance :   1.0000e-07
  Last RMS-Density change    ...    2.1518e-17  Tolerance :   5.0000e-09
  Last Orbital Gradient      ...    1.6954e-06  Tolerance :   1.0000e-05
  Last Orbital Rotation      ...    2.3932e-06  Tolerance :   1.0000e-05

             **** THE GBW FILE WAS UPDATED (/Users/cxs454/Desktop/DecomPoly/S-S_Curve/PDMS_1.gbw) ****
             **** DENSITY /Users/cxs454/Desktop/DecomPoly/S-S_Curve/PDMS_1.scfp WAS UPDATED ****
             **** ENERGY FILE WAS UPDATED (/Users/cxs454/Desktop/DecomPoly/S-S_Curve/PDMS_1.en.tmp) ****
             **** THE GBW FILE WAS UPDATED (/Users/cxs454/Desktop/DecomPoly/S-S_Curve/PDMS_1.gbw) ****
             **** DENSITY /Users/cxs454/Desktop/DecomPoly/S-S_Curve/PDMS_1.scfp WAS UPDATED ****
----------------
ORBITAL ENERGIES
----------------

  NO   OCC          E(Eh)            E(eV) 
   0   2.0000     -66.117835     -1799.1577 
   1   2.0000     -66.101217     -1798.7056 
   2   2.0000     -19.114577      -520.1341 
   3   2.0000     -19.102265      -519.7991 
   4   2.0000     -10.141702      -275.9697 
   5   2.0000     -10.140778      -275.9446 
   6   2.0000     -10.140336      -275.9326 
   7   2.0000     -10.139999      -275.9234 
   8   2.0000     -10.139557      -275.9114 
   9   2.0000      -5.274078      -143.5149 
  10   2.0000      -5.260037      -143.1329 
  11   2.0000      -3.634540       -98.9008 
  12   2.0000      -3.632241       -98.8383 
  13   2.0000      -3.630537       -98.7919 
  14   2.0000      -3.620117       -98.5084 
  15   2.0000      -3.617211       -98.4293 
  16   2.0000      -3.617090       -98.4260 
  17   2.0000      -0.997088       -27.1322 
  18   2.0000      -0.969294       -26.3758 
  19   2.0000      -0.711604       -19.3637 
  20   2.0000      -0.700322       -19.0567 
  21   2.0000      -0.680129       -18.5073 
  22   2.0000      -0.677364       -18.4320 
  23   2.0000      -0.676422       -18.4064 
  24   2.0000      -0.547127       -14.8881 
  25   2.0000      -0.512781       -13.9535 
  26   2.0000      -0.427362       -11.6291 
  27   2.0000      -0.418094       -11.3769 
  28   2.0000      -0.415009       -11.2930 
  29   2.0000      -0.409039       -11.1305 
  30   2.0000      -0.405635       -11.0379 
  31   2.0000      -0.405164       -11.0251 
  32   2.0000      -0.399513       -10.8713 
  33   2.0000      -0.395810       -10.7705 
  34   2.0000      -0.389009       -10.5855 
  35   2.0000      -0.385692       -10.4952 
  36   2.0000      -0.380476       -10.3533 
  37   2.0000      -0.369486       -10.0542 
  38   2.0000      -0.367608       -10.0031 
  39   2.0000      -0.356396        -9.6980 
  40   2.0000      -0.332050        -9.0355 
  41   2.0000      -0.321853        -8.7581 
  42   2.0000      -0.296628        -8.0717 
  43   2.0000      -0.285741        -7.7754 
  44   2.0000      -0.278058        -7.5663 
  45   0.0000       0.012697         0.3455 
  46   0.0000       0.040540         1.1031 
  47   0.0000       0.048848         1.3292 
  48   0.0000       0.060974         1.6592 
  49   0.0000       0.073901         2.0109 
  50   0.0000       0.076336         2.0772 
  51   0.0000       0.084405         2.2968 
  52   0.0000       0.089049         2.4231 
  53   0.0000       0.091671         2.4945 
  54   0.0000       0.099275         2.7014 
  55   0.0000       0.103438         2.8147 
  56   0.0000       0.108368         2.9489 
  57   0.0000       0.126167         3.4332 
  58   0.0000       0.129244         3.5169 
  59   0.0000       0.131967         3.5910 
  60   0.0000       0.137112         3.7310 
  61   0.0000       0.140317         3.8182 
  62   0.0000       0.143070         3.8931 
  63   0.0000       0.148051         4.0287 
  64   0.0000       0.153500         4.1769 
  65   0.0000       0.156905         4.2696 
  66   0.0000       0.166085         4.5194 
  67   0.0000       0.167034         4.5452 
  68   0.0000       0.184328         5.0158 
  69   0.0000       0.193271         5.2592 
  70   0.0000       0.198818         5.4101 
  71   0.0000       0.203422         5.5354 
  72   0.0000       0.208805         5.6819 
  73   0.0000       0.219654         5.9771 
  74   0.0000       0.226600         6.1661 
  75   0.0000       0.232958         6.3391 
  76   0.0000       0.237931         6.4744 
  77   0.0000       0.249268         6.7829 
  78   0.0000       0.271516         7.3883 
  79   0.0000       0.284999         7.7552 
  80   0.0000       0.292461         7.9583 
  81   0.0000       0.300013         8.1638 
  82   0.0000       0.310723         8.4552 
  83   0.0000       0.319618         8.6972 
  84   0.0000       0.323765         8.8101 
  85   0.0000       0.341216         9.2850 
  86   0.0000       0.355300         9.6682 
  87   0.0000       0.359540         9.7836 
  88   0.0000       0.367770        10.0075 
  89   0.0000       0.372376        10.1329 
  90   0.0000       0.379320        10.3218 
  91   0.0000       0.388354        10.5676 
  92   0.0000       0.399070        10.8592 
  93   0.0000       0.408451        11.1145 
  94   0.0000       0.410422        11.1682 
  95   0.0000       0.428147        11.6505 
  96   0.0000       0.432223        11.7614 
  97   0.0000       0.436860        11.8876 
  98   0.0000       0.442538        12.0421 
  99   0.0000       0.452638        12.3169 
 100   0.0000       0.458079        12.4650 
 101   0.0000       0.462266        12.5789 
 102   0.0000       0.466478        12.6935 
 103   0.0000       0.470456        12.8018 
 104   0.0000       0.473536        12.8856 
 105   0.0000       0.479834        13.0570 
 106   0.0000       0.487438        13.2639 
 107   0.0000       0.495823        13.4920 
 108   0.0000       0.509018        13.8511 
 109   0.0000       0.512671        13.9505 
 110   0.0000       0.523746        14.2518 
 111   0.0000       0.535835        14.5808 
 112   0.0000       0.546247        14.8641 
 113   0.0000       0.558230        15.1902 
 114   0.0000       0.571574        15.5533 
 115   0.0000       0.598328        16.2813 
 116   0.0000       0.610594        16.6151 
 117   0.0000       0.615835        16.7577 
 118   0.0000       0.626307        17.0427 
 119   0.0000       0.648483        17.6461 
 120   0.0000       0.668435        18.1890 
 121   0.0000       0.681058        18.5325 
 122   0.0000       0.692097        18.8329 
 123   0.0000       0.700279        19.0556 
 124   0.0000       0.715329        19.4651 
 125   0.0000       0.731388        19.9021 
 126   0.0000       0.741433        20.1754 
 127   0.0000       0.749052        20.3827 
 128   0.0000       0.772256        21.0142 
 129   0.0000       0.777912        21.1681 
 130   0.0000       0.785098        21.3636 
 131   0.0000       0.811795        22.0901 
 132   0.0000       0.816876        22.2283 
 133   0.0000       0.829248        22.5650 
 134   0.0000       0.865553        23.5529 
 135   0.0000       0.876350        23.8467 
 136   0.0000       0.889237        24.1974 
 137   0.0000       0.894803        24.3488 
 138   0.0000       0.899747        24.4834 
 139   0.0000       0.907727        24.7005 
 140   0.0000       0.920225        25.0406 
 141   0.0000       0.932675        25.3794 
 142   0.0000       0.951191        25.8832 
 143   0.0000       0.953869        25.9561 
 144   0.0000       0.965125        26.2624 
 145   0.0000       0.990579        26.9550 
 146   0.0000       1.001263        27.2457 
 147   0.0000       1.008170        27.4337 
 148   0.0000       1.015037        27.6206 
 149   0.0000       1.023813        27.8594 
 150   0.0000       1.032378        28.0924 
 151   0.0000       1.040609        28.3164 
 152   0.0000       1.056483        28.7484 
 153   0.0000       1.059688        28.8356 
 154   0.0000       1.074299        29.2332 
 155   0.0000       1.087834        29.6015 
 156   0.0000       1.101798        29.9814 
 157   0.0000       1.134886        30.8818 
 158   0.0000       1.151619        31.3371 
 159   0.0000       1.175089        31.9758 
 160   0.0000       1.186992        32.2997 
 161   0.0000       1.199101        32.6292 
 162   0.0000       1.212537        32.9948 
 163   0.0000       1.247691        33.9514 
 164   0.0000       1.258794        34.2535 
 165   0.0000       1.279251        34.8102 
 166   0.0000       1.306484        35.5512 
 167   0.0000       1.324584        36.0438 
 168   0.0000       1.339848        36.4591 
 169   0.0000       1.370471        37.2924 
 170   0.0000       1.385729        37.7076 
 171   0.0000       1.397995        38.0414 
 172   0.0000       1.405494        38.2454 
 173   0.0000       1.414833        38.4996 
 174   0.0000       1.418070        38.5876 
 175   0.0000       1.439412        39.1684 
 176   0.0000       1.453845        39.5611 
 177   0.0000       1.462319        39.7917 
 178   0.0000       1.480936        40.2983 
 179   0.0000       1.501695        40.8632 
 180   0.0000       1.510516        41.1032 
 181   0.0000       1.515823        41.2476 
 182   0.0000       1.526016        41.5250 
 183   0.0000       1.532510        41.7017 
 184   0.0000       1.541192        41.9380 
 185   0.0000       1.542004        41.9601 
 186   0.0000       1.544985        42.0412 
 187   0.0000       1.549215        42.1563 
 188   0.0000       1.554063        42.2882 
 189   0.0000       1.567173        42.6450 
 190   0.0000       1.585495        43.1435 
 191   0.0000       1.592936        43.3460 
 192   0.0000       1.607439        43.7406 
 193   0.0000       1.615661        43.9644 
 194   0.0000       1.620534        44.0970 
 195   0.0000       1.625617        44.2353 
 196   0.0000       1.626016        44.2461 
 197   0.0000       1.634596        44.4796 
 198   0.0000       1.635146        44.4946 
 199   0.0000       1.643406        44.7194 
 200   0.0000       1.653912        45.0052 
 201   0.0000       1.657855        45.1125 
 202   0.0000       1.686626        45.8954 
 203   0.0000       1.690591        46.0033 
 204   0.0000       1.697760        46.1984 
 205   0.0000       1.725376        46.9499 
 206   0.0000       1.748432        47.5773 
 207   0.0000       1.792159        48.7671 
 208   0.0000       1.831332        49.8331 
 209   0.0000       1.841021        50.0967 
 210   0.0000       1.882544        51.2266 
 211   0.0000       1.895945        51.5913 
 212   0.0000       1.908203        51.9248 
 213   0.0000       1.943657        52.8896 
 214   0.0000       1.946025        52.9540 
 215   0.0000       1.961902        53.3861 
 216   0.0000       1.969904        53.6038 
 217   0.0000       1.986675        54.0602 
 218   0.0000       2.013453        54.7888 
 219   0.0000       2.020216        54.9729 
 220   0.0000       2.040211        55.5170 
 221   0.0000       2.045185        55.6523 
 222   0.0000       2.051096        55.8132 
 223   0.0000       2.054134        55.8958 
 224   0.0000       2.063632        56.1543 
 225   0.0000       2.077476        56.5310 
 226   0.0000       2.099736        57.1367 
 227   0.0000       2.130328        57.9692 
 228   0.0000       2.149074        58.4793 
 229   0.0000       2.164739        58.9055 
 230   0.0000       2.185358        59.4666 
 231   0.0000       2.196133        59.7598 
 232   0.0000       2.205336        60.0102 
 233   0.0000       2.233889        60.7872 
 234   0.0000       2.251212        61.2586 
 235   0.0000       2.269360        61.7524 
 236   0.0000       2.294357        62.4326 
 237   0.0000       2.309989        62.8580 
 238   0.0000       2.316523        63.0358 
 239   0.0000       2.340779        63.6958 
 240   0.0000       2.360609        64.2354 
 241   0.0000       2.364246        64.3344 
 242   0.0000       2.371080        64.5204 
 243   0.0000       2.378425        64.7202 
 244   0.0000       2.383774        64.8658 
 245   0.0000       2.390580        65.0510 
 246   0.0000       2.396841        65.2214 
 247   0.0000       2.399261        65.2872 
 248   0.0000       2.413526        65.6754 
 249   0.0000       2.415436        65.7273 
 250   0.0000       2.423959        65.9593 
 251   0.0000       2.453139        66.7533 
 252   0.0000       2.464760        67.0695 
 253   0.0000       2.500532        68.0429 
 254   0.0000       2.511820        68.3501 
 255   0.0000       2.539558        69.1049 
 256   0.0000       2.570927        69.9585 
 257   0.0000       2.579501        70.1918 
 258   0.0000       2.581223        70.2386 
 259   0.0000       2.585005        70.3416 
 260   0.0000       2.589880        70.4742 
 261   0.0000       2.593628        70.5762 
 262   0.0000       2.605268        70.8929 
 263   0.0000       2.612472        71.0890 
 264   0.0000       2.629803        71.5606 
 265   0.0000       2.636811        71.7513 
 266   0.0000       2.651756        72.1579 
 267   0.0000       2.664148        72.4952 
 268   0.0000       2.675856        72.8137 
 269   0.0000       2.686820        73.1121 
 270   0.0000       2.694915        73.3324 
 271   0.0000       2.716826        73.9286 
 272   0.0000       2.770233        75.3819 
 273   0.0000       2.780275        75.6551 
 274   0.0000       2.804640        76.3181 
 275   0.0000       2.850439        77.5644 
 276   0.0000       2.865574        77.9762 
 277   0.0000       2.871261        78.1310 
 278   0.0000       2.889223        78.6198 
 279   0.0000       2.902629        78.9845 
 280   0.0000       2.916738        79.3685 
 281   0.0000       2.961980        80.5996 
 282   0.0000       3.023974        82.2865 
 283   0.0000       3.036583        82.6296 
 284   0.0000       3.091338        84.1196 
 285   0.0000       3.106628        84.5357 
 286   0.0000       3.120555        84.9146 
 287   0.0000       3.143432        85.5371 
 288   0.0000       3.155885        85.8760 
 289   0.0000       3.176242        86.4299 
 290   0.0000       3.181696        86.5784 
 291   0.0000       3.201138        87.1074 
 292   0.0000       3.207674        87.2852 
 293   0.0000       3.226718        87.8035 
 294   0.0000       3.234554        88.0167 
 295   0.0000       3.258762        88.6754 
 296   0.0000       3.270551        88.9962 
 297   0.0000       3.273258        89.0699 
 298   0.0000       3.281490        89.2939 
 299   0.0000       3.291890        89.5769 
 300   0.0000       3.311285        90.1047 
 301   0.0000       3.332221        90.6743 
 302   0.0000       3.336241        90.7837 
 303   0.0000       3.349804        91.1528 
 304   0.0000       3.351735        91.2053 
 305   0.0000       3.364055        91.5406 
 306   0.0000       3.379648        91.9649 
 307   0.0000       3.379736        91.9673 
 308   0.0000       3.390778        92.2678 
 309   0.0000       3.399572        92.5071 
 310   0.0000       3.415797        92.9486 
 311   0.0000       3.444512        93.7299 
 312   0.0000       3.455369        94.0254 
 313   0.0000       3.468960        94.3952 
 314   0.0000       3.480467        94.7083 
 315   0.0000       3.501316        95.2756 
 316   0.0000       3.528495        96.0152 
 317   0.0000       3.546463        96.5042 
 318   0.0000       3.563840        96.9770 
 319   0.0000       3.598625        97.9236 
 320   0.0000       3.606523        98.1385 
 321   0.0000       3.612652        98.3052 
 322   0.0000       3.632492        98.8451 
 323   0.0000       3.648340        99.2764 
 324   0.0000       3.656204        99.4904 
 325   0.0000       3.659927        99.5917 
 326   0.0000       3.670893        99.8901 
 327   0.0000       3.675898       100.0263 
 328   0.0000       3.677815       100.0784 
 329   0.0000       3.688502       100.3692 
 330   0.0000       3.725987       101.3893 
 331   0.0000       3.769120       102.5630 
 332   0.0000       3.893000       105.9339 
 333   0.0000       4.247059       115.5684 
 334   0.0000       4.253099       115.7327 
 335   0.0000       4.262121       115.9782 
 336   0.0000       4.266011       116.0841 
 337   0.0000       4.268401       116.1491 
 338   0.0000       4.279058       116.4391 
 339   0.0000       4.281066       116.4937 
 340   0.0000       4.293024       116.8191 
 341   0.0000       4.303732       117.1105 
 342   0.0000       4.326368       117.7264 
 343   0.0000       4.377653       119.1220 
 344   0.0000       4.388681       119.4221 
 345   0.0000       4.398042       119.6768 
 346   0.0000       4.402739       119.8046 
 347   0.0000       4.413052       120.0852 
 348   0.0000       5.145843       140.0255 
 349   0.0000       5.147660       140.0749 
 350   0.0000       5.168694       140.6473 
 351   0.0000       5.180150       140.9590 
 352   0.0000       5.214136       141.8838 
 353   0.0000       5.229832       142.3110 
 354   0.0000       5.300406       144.2314 
 355   0.0000       5.325940       144.9262 
 356   0.0000       5.385249       146.5401 
 357   0.0000       5.409869       147.2100 
 358   0.0000       5.427443       147.6882 
 359   0.0000       5.493033       149.4730 
 360   0.0000       5.502092       149.7195 
 361   0.0000       6.226711       169.4374 
 362   0.0000       6.401571       174.1956 
 363   0.0000       6.490118       176.6051 
 364   0.0000       6.496008       176.7654 
 365   0.0000       6.514495       177.2684 
 366   0.0000       6.573962       178.8866 
 367   0.0000       6.590119       179.3263 
 368   0.0000       6.609860       179.8634 
 369   0.0000       6.631707       180.4579 
 370   0.0000       6.664202       181.3421 
 371   0.0000       6.760568       183.9644 
 372   0.0000       6.786300       184.6646 
 373   0.0000       6.839210       186.1044 
 374   0.0000       6.939781       188.8410 
 375   0.0000       7.060212       192.1181 
 376   0.0000       7.074835       192.5160 
 377   0.0000       7.217769       196.4055 
 378   0.0000      12.155632       330.7716 
 379   0.0000      12.196179       331.8749 
 380   0.0000      22.232153       604.9676 
 381   0.0000      22.243788       605.2843 
 382   0.0000      22.273463       606.0918 
 383   0.0000      22.285156       606.4099 
 384   0.0000      22.312976       607.1669 
 385   0.0000      43.560770      1185.3488 
 386   0.0000      43.793324      1191.6769 

                    ********************************
                    * MULLIKEN POPULATION ANALYSIS *
                    ********************************

-----------------------
MULLIKEN ATOMIC CHARGES
-----------------------
   0 Si:    0.609217
   1 O :   -0.367929
   2 O :   -0.538003
   3 C :   -0.458961
   4 C :   -0.451776
   5 H :    0.109921
   6 H :    0.115994
   7 H :    0.116653
   8 H :    0.120809
   9 H :    0.118126
  10 H :    0.112848
  11 H :    0.305952
  12 Si:    0.561234
  13 C :   -0.449315
  14 C :   -0.475063
  15 C :   -0.469554
  16 H :    0.118349
  17 H :    0.116004
  18 H :    0.122318
  19 H :    0.113951
  20 H :    0.107641
  21 H :    0.113851
  22 H :    0.112575
  23 H :    0.121777
  24 H :    0.113381
Sum of atomic charges:   -0.0000000

--------------------------------
MULLIKEN REDUCED ORBITAL CHARGES
--------------------------------
  0 Sis       :     5.099997  s :     5.099997
      pz      :     2.544964  p :     7.545611
      px      :     2.468675
      py      :     2.531972
      dz2     :     0.122020  d :     0.621375
      dxz     :     0.129201
      dyz     :     0.119813
      dx2y2   :     0.125147
      dxy     :     0.125193
      f0      :     0.019646  f :     0.123800
      f+1     :     0.010630
      f-1     :     0.014569
      f+2     :     0.025929
      f-2     :     0.013527
      f+3     :     0.013436
      f-3     :     0.026063
  1 O s       :     3.695125  s :     3.695125
      pz      :     1.720464  p :     4.658714
      px      :     1.272428
      py      :     1.665822
      dz2     :     0.001455  d :     0.012953
      dxz     :     0.002296
      dyz     :     0.001461
      dx2y2   :     0.003586
      dxy     :     0.004155
      f0      :     0.000156  f :     0.001136
      f+1     :     0.000201
      f-1     :     0.000052
      f+2     :     0.000141
      f-2     :     0.000056
      f+3     :     0.000260
      f-3     :     0.000271
  2 O s       :     3.745156  s :     3.745156
      pz      :     1.287078  p :     4.774538
      px      :     1.791265
      py      :     1.696195
      dz2     :     0.004850  d :     0.017200
      dxz     :     0.002138
      dyz     :     0.004050
      dx2y2   :     0.003109
      dxy     :     0.003053
      f0      :     0.000491  f :     0.001110
      f+1     :     0.000232
      f-1     :     0.000164
      f+2     :     0.000055
      f-2     :     0.000076
      f+3     :     0.000045
      f-3     :     0.000046
  3 C s       :     3.237897  s :     3.237897
      pz      :     1.043370  p :     3.201456
      px      :     1.046016
      py      :     1.112069
      dz2     :     0.003409  d :     0.018019
      dxz     :     0.001382
      dyz     :     0.006121
      dx2y2   :     0.004709
      dxy     :     0.002397
      f0      :     0.000136  f :     0.001590
      f+1     :     0.000361
      f-1     :     0.000441
      f+2     :     0.000138
      f-2     :    -0.000047
      f+3     :     0.000458
      f-3     :     0.000102
  4 C s       :     3.230029  s :     3.230029
      pz      :     1.095257  p :     3.201702
      px      :     1.052086
      py      :     1.054359
      dz2     :     0.003817  d :     0.018476
      dxz     :     0.002794
      dyz     :     0.004899
      dx2y2   :     0.004950
      dxy     :     0.002017
      f0      :     0.000143  f :     0.001569
      f+1     :     0.000195
      f-1     :     0.000517
      f+2     :     0.000153
      f-2     :    -0.000036
      f+3     :     0.000598
      f-3     :    -0.000002
  5 H s       :     0.867016  s :     0.867016
      pz      :     0.010551  p :     0.023063
      px      :     0.005544
      py      :     0.006968
  6 H s       :     0.861211  s :     0.861211
      pz      :     0.008118  p :     0.022795
      px      :     0.005295
      py      :     0.009381
  7 H s       :     0.860663  s :     0.860663
      pz      :     0.004501  p :     0.022684
      px      :     0.012408
      py      :     0.005776
  8 H s       :     0.856005  s :     0.856005
      pz      :     0.006054  p :     0.023186
      px      :     0.005795
      py      :     0.011336
  9 H s       :     0.859087  s :     0.859087
      pz      :     0.005680  p :     0.022787
      px      :     0.012352
      py      :     0.004756
 10 H s       :     0.864409  s :     0.864409
      pz      :     0.010315  p :     0.022743
      px      :     0.005189
      py      :     0.007239
 11 H s       :     0.642645  s :     0.642645
      pz      :     0.020777  p :     0.051403
      px      :     0.015991
      py      :     0.014635
 12 Sis       :     5.199434  s :     5.199434
      pz      :     2.605335  p :     7.597132
      px      :     2.445736
      py      :     2.546061
      dz2     :     0.101393  d :     0.544733
      dxz     :     0.072626
      dyz     :     0.134229
      dx2y2   :     0.094922
      dxy     :     0.141562
      f0      :     0.016886  f :     0.097467
      f+1     :     0.009207
      f-1     :     0.010272
      f+2     :     0.009709
      f-2     :     0.017730
      f+3     :     0.023414
      f-3     :     0.010248
 13 C s       :     3.240455  s :     3.240455
      pz      :     1.046449  p :     3.187904
      px      :     1.074768
      py      :     1.066687
      dz2     :     0.003488  d :     0.019342
      dxz     :     0.001656
      dyz     :     0.006693
      dx2y2   :     0.003976
      dxy     :     0.003529
      f0      :     0.000168  f :     0.001613
      f+1     :     0.000060
      f-1     :     0.000753
      f+2     :    -0.000050
      f-2     :     0.000123
      f+3     :     0.000120
      f-3     :     0.000438
 14 C s       :     3.241893  s :     3.241893
      pz      :     1.101448  p :     3.211348
      px      :     1.052592
      py      :     1.057308
      dz2     :     0.004759  d :     0.020188
      dxz     :     0.002576
      dyz     :     0.005738
      dx2y2   :     0.001624
      dxy     :     0.005492
      f0      :     0.000242  f :     0.001634
      f+1     :     0.000000
      f-1     :     0.000670
      f+2     :    -0.000002
      f-2     :     0.000092
      f+3     :     0.000020
      f-3     :     0.000612
 15 C s       :     3.240738  s :     3.240738
      pz      :     1.079126  p :     3.206797
      px      :     1.045204
      py      :     1.082466
      dz2     :     0.007298  d :     0.020403
      dxz     :     0.001642
      dyz     :     0.002658
      dx2y2   :     0.001879
      dxy     :     0.006926
      f0      :     0.000218  f :     0.001617
      f+1     :    -0.000014
      f-1     :     0.000680
      f+2     :    -0.000011
      f-2     :     0.000191
      f+3     :     0.000100
      f-3     :     0.000453
 16 H s       :     0.858770  s :     0.858770
      pz      :     0.011656  p :     0.022882
      px      :     0.004741
      py      :     0.006485
 17 H s       :     0.861291  s :     0.861291
      pz      :     0.005337  p :     0.022705
      px      :     0.010141
      py      :     0.007226
 18 H s       :     0.854725  s :     0.854725
      pz      :     0.005588  p :     0.022957
      px      :     0.008465
      py      :     0.008904
 19 H s       :     0.863116  s :     0.863116
      pz      :     0.008100  p :     0.022933
      px      :     0.005423
      py      :     0.009411
 20 H s       :     0.869727  s :     0.869727
      pz      :     0.004517  p :     0.022632
      px      :     0.011525
      py      :     0.006589
 21 H s       :     0.863207  s :     0.863207
      pz      :     0.010657  p :     0.022942
      px      :     0.005518
      py      :     0.006766
 22 H s       :     0.864602  s :     0.864602
      pz      :     0.009968  p :     0.022823
      px      :     0.004500
      py      :     0.008356
 23 H s       :     0.855258  s :     0.855258
      pz      :     0.006183  p :     0.022965
      px      :     0.008904
      py      :     0.007878
 24 H s       :     0.863952  s :     0.863952
      pz      :     0.005829  p :     0.022667
      px      :     0.010045
      py      :     0.006793


                     *******************************
                     * LOEWDIN POPULATION ANALYSIS *
                     *******************************

----------------------
LOEWDIN ATOMIC CHARGES
----------------------
   0 Si:   -0.026545
   1 O :    0.067070
   2 O :   -0.105108
   3 C :   -0.425320
   4 C :   -0.415585
   5 H :    0.124594
   6 H :    0.127696
   7 H :    0.125056
   8 H :    0.127800
   9 H :    0.128017
  10 H :    0.126838
  11 H :    0.171882
  12 Si:    0.116379
  13 C :   -0.420349
  14 C :   -0.426515
  15 C :   -0.423445
  16 H :    0.125934
  17 H :    0.125723
  18 H :    0.126071
  19 H :    0.125758
  20 H :    0.124003
  21 H :    0.125881
  22 H :    0.124058
  23 H :    0.125115
  24 H :    0.124993

-------------------------------
LOEWDIN REDUCED ORBITAL CHARGES
-------------------------------
  0 Sis       :     4.533765  s :     4.533765
      pz      :     2.604942  p :     7.759837
      px      :     2.530923
      py      :     2.623971
      dz2     :     0.244396  d :     1.296611
      dxz     :     0.248761
      dyz     :     0.255505
      dx2y2   :     0.289233
      dxy     :     0.258716
      f0      :     0.065793  f :     0.436332
      f+1     :     0.045359
      f-1     :     0.049565
      f+2     :     0.085969
      f-2     :     0.052488
      f+3     :     0.053703
      f-3     :     0.083455
  1 O s       :     3.291583  s :     3.291583
      pz      :     1.555831  p :     4.608400
      px      :     1.492037
      py      :     1.560532
      dz2     :     0.004247  d :     0.031423
      dxz     :     0.005201
      dyz     :     0.001761
      dx2y2   :     0.009258
      dxy     :     0.010956
      f0      :     0.000124  f :     0.001524
      f+1     :     0.000352
      f-1     :     0.000059
      f+2     :     0.000110
      f-2     :     0.000109
      f+3     :     0.000397
      f-3     :     0.000372
  2 O s       :     3.374247  s :     3.374247
      pz      :     1.337009  p :     4.696777
      px      :     1.685299
      py      :     1.674469
      dz2     :     0.012425  d :     0.032247
      dxz     :     0.004551
      dyz     :     0.009160
      dx2y2   :     0.003276
      dxy     :     0.002835
      f0      :     0.000830  f :     0.001837
      f+1     :     0.000305
      f-1     :     0.000291
      f+2     :     0.000127
      f-2     :     0.000173
      f+3     :     0.000052
      f-3     :     0.000058
  3 C s       :     2.884876  s :     2.884876
      pz      :     1.076671  p :     3.384349
      px      :     1.095066
      py      :     1.212613
      dz2     :     0.030253  d :     0.143771
      dxz     :     0.011809
      dyz     :     0.040926
      dx2y2   :     0.043531
      dxy     :     0.017252
      f0      :     0.000909  f :     0.012324
      f+1     :     0.002571
      f-1     :     0.002265
      f+2     :     0.001223
      f-2     :     0.002058
      f+3     :     0.002608
      f-3     :     0.000690
  4 C s       :     2.880785  s :     2.880785
      pz      :     1.198269  p :     3.380297
      px      :     1.089199
      py      :     1.092830
      dz2     :     0.033774  d :     0.142180
      dxz     :     0.015294
      dyz     :     0.037065
      dx2y2   :     0.040071
      dxy     :     0.015976
      f0      :     0.000699  f :     0.012322
      f+1     :     0.002370
      f-1     :     0.002517
      f+2     :     0.001062
      f-2     :     0.001726
      f+3     :     0.003335
      f-3     :     0.000614
  5 H s       :     0.811480  s :     0.811480
      pz      :     0.029445  p :     0.063926
      px      :     0.016044
      py      :     0.018437
  6 H s       :     0.808113  s :     0.808113
      pz      :     0.023636  p :     0.064191
      px      :     0.015456
      py      :     0.025099
  7 H s       :     0.810947  s :     0.810947
      pz      :     0.013230  p :     0.063997
      px      :     0.034416
      py      :     0.016351
  8 H s       :     0.807739  s :     0.807739
      pz      :     0.016464  p :     0.064461
      px      :     0.016777
      py      :     0.031220
[...]
     52       0.158773  -0.042978   0.065821   0.078409   0.000325   0.003334
     53      -0.071423   0.025584  -0.010675  -0.038305  -0.001882  -0.001407
     54      -0.078051  -0.111197  -0.437240   0.030414   0.042275  -0.011230
     55      -0.108484  -0.124758  -0.517176   0.028385   0.049292  -0.013524
     56      -0.037268  -0.038157  -0.159593   0.007183   0.014997  -0.004190
     57      -0.022597   0.002571   0.002590   0.044034   0.003294  -0.070611
     58      -0.109718  -0.000493   0.002012   0.191761   0.025081  -0.473497
     59       0.115924  -0.001730  -0.004982  -0.205602  -0.023938   0.458684
     60       0.250826  -0.078242  -0.083029  -0.625647   0.003692   0.110500
     61      -0.122734   0.038624   0.040607   0.305142  -0.002097  -0.048865
     62       0.038983  -0.013631  -0.014072  -0.100386   0.001711  -0.000427
     63       0.041220  -0.026851  -0.021406  -0.119252   0.010079  -0.136126
     64      -0.072627   0.046636   0.036686   0.212551  -0.017545   0.239742
     65      -0.153050   0.091981   0.073981   0.432776  -0.032976   0.436434
     66       0.025189   0.003928   0.003161   0.007896  -0.000234  -0.002378
     67       0.364983   0.343899  -0.062684   0.092586  -0.001051  -0.042036
     68      -0.398474  -0.386682   0.072619  -0.101159   0.001142   0.047519
     69      -0.006209   0.441667  -0.177444  -0.030318   0.003515  -0.010816
     70      -0.029187   0.534989  -0.219483  -0.042872   0.004510  -0.011789
     71       0.001242   0.216042  -0.087116  -0.013604   0.001776  -0.005605
     72      -0.505101   0.169911  -0.169601  -0.183232   0.006294   0.039774
     73       0.202021  -0.088915   0.076336   0.075196  -0.002719  -0.015300
     74      -0.049076   0.023040  -0.018909  -0.017892   0.000620   0.003619
                 72         73         74    
      0       0.000846   0.000564  -0.000392
      1       0.000490  -0.000615  -0.000602
      2       0.000246  -0.000116   0.000418
      3      -0.000229  -0.000210  -0.000332
      4      -0.000115   0.000125  -0.000036
      5      -0.000125   0.000056  -0.000110
      6      -0.000193  -0.000054   0.001739
      7      -0.000099   0.000103  -0.008854
      8      -0.000187   0.000057   0.061755
      9       0.037627   0.005900  -0.000104
     10       0.009613   0.001376  -0.000089
     11       0.002808  -0.000199  -0.000234
     12       0.050539   0.054585   0.000246
     13       0.038719  -0.071740   0.000300
     14       0.021531  -0.011744  -0.000170
     15      -0.004591  -0.001460  -0.000391
     16      -0.015999  -0.003461   0.000317
     17       0.061104   0.012376   0.000249
     18      -0.124160  -0.015816   0.000036
     19      -0.153510  -0.019734  -0.001628
     20      -0.153824  -0.020135  -0.000128
     21      -0.326279  -0.055129   0.000068
     22       0.051593   0.008970   0.000156
     23       0.058780   0.009516  -0.000097
     24       0.069413  -0.188360   0.000076
     25      -0.216992   0.760725  -0.000641
     26       0.029591  -0.087753  -0.000290
     27      -0.388690  -0.564379  -0.000912
     28       0.046142   0.039037   0.000004
     29       0.094821   0.127416  -0.000112
     30      -0.291676   0.092562  -0.000756
     31      -0.297173   0.066615  -0.000819
     32      -0.384659   0.102083   0.000184
     33      -0.000223  -0.000317  -0.012972
     34      -0.000704   0.000491   0.158745
     35       0.001009  -0.000017  -0.985256
     36      -0.000080  -0.000108   0.000108
     37       0.000010  -0.000045  -0.000045
     38       0.000452   0.000044   0.000000
     39      -0.007818  -0.000375  -0.000033
     40      -0.010950  -0.000071   0.000016
     41       0.045057   0.001005   0.000004
     42       0.002020  -0.000712  -0.000021
     43      -0.002176  -0.000629   0.000023
     44       0.001802   0.000045   0.000014
     45       0.001042  -0.006433  -0.000023
     46       0.008030  -0.000062   0.000020
     47       0.007723   0.000460  -0.000000
     48       0.030508   0.007555  -0.000003
     49      -0.035540  -0.012148  -0.000056
     50      -0.079897  -0.025537   0.000039
     51       0.007566   0.046060  -0.000122
     52      -0.001697  -0.020526   0.000107
     53       0.002947   0.008562  -0.000132
     54      -0.050205   0.026022  -0.000008
     55      -0.058789   0.033396  -0.000127
     56      -0.017975   0.011020   0.000034
     57       0.039896   0.000904   0.000025
     58       0.272980   0.005929  -0.000034
     59      -0.263430  -0.005652   0.000034
     60      -0.033677   0.001797  -0.000187
     61       0.013454  -0.000924  -0.000073
     62       0.005431   0.000527  -0.000050
     63       0.087674   0.002122   0.000060
     64      -0.155153  -0.003873   0.000037
     65      -0.284653  -0.007084   0.000043
     66       0.001228   0.000074  -0.000062
     67       0.018736   0.003320  -0.000133
     68      -0.021179  -0.003836   0.000041
     69      -0.001428   0.004984   0.000042
     70      -0.002577   0.006191  -0.000002
     71      -0.000658   0.002596  -0.000142
     72      -0.023905   0.003736  -0.000100
     73       0.009494  -0.001725   0.000042
     74      -0.002309   0.000424   0.000115


-----------
IR SPECTRUM
-----------

 Mode   freq       eps      Int      T**2         TX        TY        TZ
       cm**-1   L/(mol*cm) km/mol    a.u.
----------------------------------------------------------------------------
  6:     33.36   0.000032    0.16  0.000297  ( 0.002391  0.007546  0.015316)
  7:     61.25   0.000029    0.14  0.000146  (-0.002901 -0.009472 -0.006892)
  8:     83.94   0.000087    0.44  0.000324  ( 0.015375  0.003977 -0.008495)
  9:    142.63   0.000012    0.06  0.000025  (-0.004099  0.002913 -0.000138)
 10:    149.82   0.000463    2.34  0.000963  ( 0.025383 -0.017790 -0.001648)
 11:    158.73   0.000791    4.00  0.001556  ( 0.031069 -0.024027 -0.003633)
 12:    165.00   0.000002    0.01  0.000004  ( 0.001566 -0.000187 -0.001409)
 13:    169.49   0.000604    3.05  0.001112  (-0.026424  0.020108  0.003014)
 14:    173.73   0.000017    0.09  0.000031  ( 0.005508 -0.000841  0.000233)
 15:    182.07   0.000052    0.26  0.000088  (-0.007222  0.005798  0.001638)
 16:    186.02   0.000619    3.13  0.001039  ( 0.023768 -0.021680  0.002053)
 17:    197.70   0.000499    2.52  0.000788  ( 0.020573 -0.018132 -0.005968)
 18:    227.52   0.000385    1.95  0.000528  (-0.013172  0.004899  0.018187)
 19:    246.06   0.000154    0.78  0.000196  ( 0.011822 -0.006128 -0.004298)
 20:    249.53   0.003964   20.03  0.004957  (-0.042348  0.056137  0.003527)
 21:    278.41   0.011357   57.39  0.012730  (-0.105137  0.040877 -0.002259)
 22:    284.87   0.001576    7.97  0.001727  ( 0.037312 -0.003790  0.017896)
 23:    337.25   0.007616   38.49  0.007047  (-0.026464  0.035477  0.071333)
 24:    358.32   0.010652   53.83  0.009277  ( 0.043207 -0.084860  0.014458)
 25:    501.38   0.002088   10.55  0.001300  ( 0.009688  0.005617 -0.034270)
 26:    615.84   0.003262   16.48  0.001653  (-0.039146 -0.001039 -0.010918)
 27:    665.77   0.003076   15.55  0.001442  ( 0.002711  0.036090  0.011488)
 28:    675.44   0.001874    9.47  0.000866  (-0.015519  0.010829  0.022532)
 29:    683.66   0.000004    0.02  0.000002  (-0.000004 -0.001130  0.000672)
 30:    692.00   0.001058    5.35  0.000477  ( 0.007367 -0.000411 -0.020558)
 31:    695.10   0.000857    4.33  0.000385  ( 0.003987  0.015344 -0.011548)
 32:    752.10   0.018380   92.89  0.007626  ( 0.054381  0.013699  0.066944)
 33:    765.72   0.004196   21.21  0.001710  (-0.019877 -0.034743 -0.010392)
 34:    772.07   0.000705    3.56  0.000285  ( 0.015929 -0.002266 -0.005093)
 35:    778.90   0.009046   45.71  0.003624  ( 0.004753  0.024065  0.054976)
 36:    788.12   0.009346   47.23  0.003701  ( 0.010069 -0.045258  0.039383)
 37:    841.70   0.027099  136.95  0.010047  ( 0.092585 -0.038290 -0.002988)
 38:    856.97   0.006357   32.13  0.002315  (-0.044107 -0.014566 -0.012549)
 39:    863.36   0.054247  274.14  0.019608  (-0.063335 -0.116789 -0.044233)
 40:    867.46   0.017879   90.35  0.006432  (-0.023449 -0.033550  0.068967)
 41:    902.93   0.010398   52.55  0.003594  (-0.009667 -0.058736  0.007102)
 42:    909.36   0.015749   79.59  0.005405  ( 0.024166  0.004344 -0.069295)
 43:   1047.13   0.157325  795.05  0.046886  ( 0.211168 -0.047866 -0.001625)
 44:   1277.80   0.006766   34.19  0.001652  ( 0.026479  0.028520  0.011745)
 45:   1289.39   0.005990   30.27  0.001450  ( 0.007931  0.002487 -0.037156)
 46:   1294.15   0.005533   27.96  0.001334  (-0.018072 -0.011369  0.029636)
 47:   1295.04   0.013677   69.12  0.003296  (-0.026375  0.050507 -0.007004)
 48:   1298.33   0.005479   27.69  0.001317  (-0.008855 -0.006592  0.034570)
 49:   1450.02   0.000130    0.66  0.000028  (-0.004998  0.001217  0.001229)
 50:   1451.69   0.000338    1.71  0.000073  ( 0.008450 -0.001037  0.000480)
 51:   1456.98   0.000044    0.22  0.000010  (-0.000753 -0.002606  0.001463)
 52:   1457.82   0.000070    0.35  0.000015  ( 0.001212 -0.001563  0.003312)
 53:   1458.65   0.000268    1.35  0.000057  (-0.004699  0.001046 -0.005836)
 54:   1463.04   0.000181    0.92  0.000039  (-0.003360 -0.004960  0.001654)
 55:   1463.52   0.001036    5.24  0.000221  (-0.011993 -0.005874  0.006524)
 56:   1467.59   0.001494    7.55  0.000318  ( 0.016732  0.001190  0.006026)
 57:   1467.97   0.001702    8.60  0.000362  (-0.001136  0.013816  0.013025)
 58:   1476.38   0.001402    7.08  0.000296  (-0.011488  0.012501 -0.002834)
 59:   3022.68   0.001322    6.68  0.000136  (-0.002648  0.002348  0.011134)
 60:   3023.73   0.000903    4.56  0.000093  (-0.002523 -0.009216  0.001361)
 61:   3024.77   0.001068    5.40  0.000110  ( 0.002032 -0.009313  0.004398)
 62:   3026.70   0.000641    3.24  0.000066  ( 0.007579  0.001876  0.002264)
 63:   3032.58   0.000580    2.93  0.000060  ( 0.000149  0.000698 -0.007690)
 64:   3090.28   0.002065   10.43  0.000208  ( 0.000067 -0.002480 -0.014224)
 65:   3090.73   0.001039    5.25  0.000105  ( 0.005893 -0.000689 -0.008349)
 66:   3091.83   0.002695   13.62  0.000272  ( 0.014244 -0.006392  0.005315)
 67:   3094.34   0.002047   10.35  0.000206  (-0.010598 -0.008443  0.004779)
 68:   3096.17   0.002837   14.34  0.000286  ( 0.011624  0.009360  0.007954)
 69:   3097.66   0.005856   29.60  0.000590  ( 0.017690 -0.016310 -0.003319)
 70:   3099.49   0.000452    2.28  0.000045  ( 0.006074 -0.001964 -0.002176)
 71:   3102.00   0.003817   19.29  0.000384  ( 0.012693  0.009163 -0.011786)
 72:   3102.24   0.004428   22.38  0.000445  ( 0.015554  0.005991  0.012947)
 73:   3107.01   0.002140   10.81  0.000215  ( 0.009918 -0.010532 -0.002375)
 74:   3856.40   0.011066   55.92  0.000895  (-0.009414 -0.004582 -0.028034)

* The epsilon (eps) is given for a Dirac delta lineshape.
** The dipole moment derivative (T) already includes vibrational overlap.

The first frequency considered to be a vibration is 6
The total number of vibrations considered is 69


--------------------------
THERMOCHEMISTRY AT 298.15K
--------------------------

Temperature         ... 298.15 K
Pressure            ... 1.00 atm
Total Mass          ... 164.35 AMU

Throughout the following assumptions are being made:
  (1) The electronic state is orbitally nondegenerate
  (2) There are no thermally accessible electronically excited states
  (3) Hindered rotations indicated by low frequency modes are not
      treated as such but are treated as vibrations and this may
      cause some error
  (4) All equations used are the standard statistical mechanics
      equations for an ideal gas
  (5) All vibrations are strictly harmonic

freq.      33.36  E(vib)   ...       0.55 
freq.      61.25  E(vib)   ...       0.51 
freq.      83.94  E(vib)   ...       0.48 
freq.     142.63  E(vib)   ...       0.41 
freq.     149.82  E(vib)   ...       0.40 
freq.     158.73  E(vib)   ...       0.39 
freq.     165.00  E(vib)   ...       0.39 
freq.     169.49  E(vib)   ...       0.38 
freq.     173.73  E(vib)   ...       0.38 
freq.     182.07  E(vib)   ...       0.37 
freq.     186.02  E(vib)   ...       0.37 
freq.     197.70  E(vib)   ...       0.35 
freq.     227.52  E(vib)   ...       0.33 
freq.     246.06  E(vib)   ...       0.31 
freq.     249.53  E(vib)   ...       0.31 
freq.     278.41  E(vib)   ...       0.28 
freq.     284.87  E(vib)   ...       0.28 
freq.     337.25  E(vib)   ...       0.24 
freq.     358.32  E(vib)   ...       0.22 
freq.     501.38  E(vib)   ...       0.14 
freq.     615.84  E(vib)   ...       0.10 
freq.     665.77  E(vib)   ...       0.08 
freq.     675.44  E(vib)   ...       0.08 
freq.     683.66  E(vib)   ...       0.07 
freq.     692.00  E(vib)   ...       0.07 
freq.     695.10  E(vib)   ...       0.07 
freq.     752.10  E(vib)   ...       0.06 
freq.     765.72  E(vib)   ...       0.06 
freq.     772.07  E(vib)   ...       0.05 
freq.     778.90  E(vib)   ...       0.05 
freq.     788.12  E(vib)   ...       0.05 
freq.     841.70  E(vib)   ...       0.04 
freq.     856.97  E(vib)   ...       0.04 
freq.     863.36  E(vib)   ...       0.04 
freq.     867.46  E(vib)   ...       0.04 
freq.     902.93  E(vib)   ...       0.03 
freq.     909.36  E(vib)   ...       0.03 
freq.    1047.13  E(vib)   ...       0.02 
freq.    1277.80  E(vib)   ...       0.01 
freq.    1289.39  E(vib)   ...       0.01 
freq.    1294.15  E(vib)   ...       0.01 
freq.    1295.04  E(vib)   ...       0.01 
freq.    1298.33  E(vib)   ...       0.01 
freq.    1450.02  E(vib)   ...       0.00 
freq.    1451.69  E(vib)   ...       0.00 
freq.    1456.98  E(vib)   ...       0.00 
freq.    1457.82  E(vib)   ...       0.00 
freq.    1458.65  E(vib)   ...       0.00 
freq.    1463.04  E(vib)   ...       0.00 
freq.    1463.52  E(vib)   ...       0.00 
freq.    1467.59  E(vib)   ...       0.00 
freq.    1467.97  E(vib)   ...       0.00 
freq.    1476.38  E(vib)   ...       0.00 
freq.    3022.68  E(vib)   ...       0.00 
freq.    3023.73  E(vib)   ...       0.00 
freq.    3024.77  E(vib)   ...       0.00 
freq.    3026.70  E(vib)   ...       0.00 
freq.    3032.58  E(vib)   ...       0.00 
freq.    3090.28  E(vib)   ...       0.00 
freq.    3090.73  E(vib)   ...       0.00 
freq.    3091.83  E(vib)   ...       0.00 
freq.    3094.34  E(vib)   ...       0.00 
freq.    3096.17  E(vib)   ...       0.00 
freq.    3097.66  E(vib)   ...       0.00 
freq.    3099.49  E(vib)   ...       0.00 
freq.    3102.00  E(vib)   ...       0.00 
freq.    3102.24  E(vib)   ...       0.00 
freq.    3107.01  E(vib)   ...       0.00 
freq.    3856.40  E(vib)   ...       0.00 

------------
INNER ENERGY
------------

The inner energy is: U= E(el) + E(ZPE) + E(vib) + E(rot) + E(trans)
    E(el)   - is the total energy from the electronic structure calculation
              = E(kin-el) + E(nuc-el) + E(el-el) + E(nuc-nuc)
    E(ZPE)  - the the zero temperature vibrational energy from the frequency calculation
    E(vib)  - the the finite temperature correction to E(ZPE) due to population
              of excited vibrational states
    E(rot)  - is the rotational thermal energy
    E(trans)- is the translational thermal energy

Summary of contributions to the inner energy U:
Electronic energy                ...   -929.74506174 Eh
Zero point energy                ...      0.20364007 Eh     127.79 kcal/mol
Thermal vibrational correction   ...      0.01297302 Eh       8.14 kcal/mol
Thermal rotational correction    ...      0.00141627 Eh       0.89 kcal/mol
Thermal translational correction ...      0.00141627 Eh       0.89 kcal/mol
-----------------------------------------------------------------------
Total thermal energy                   -929.52561611 Eh


Summary of corrections to the electronic energy:
(perhaps to be used in another calculation)
Total thermal correction                  0.01580556 Eh       9.92 kcal/mol
Non-thermal (ZPE) correction              0.20364007 Eh     127.79 kcal/mol
-----------------------------------------------------------------------
Total correction                          0.21944563 Eh     137.70 kcal/mol


--------
ENTHALPY
--------

The enthalpy is H = U + kB*T
                kB is Boltzmann's constant
Total free energy                 ...   -929.52561611 Eh 
Thermal Enthalpy correction       ...      0.00094421 Eh       0.59 kcal/mol
-----------------------------------------------------------------------
Total Enthalpy                    ...   -929.52467190 Eh


Note: Only C1 symmetry has been detected, increase convergence thresholds 
      if your molecule has a higher symmetry. Symmetry factor of 1.0 is   
      used for the rotational entropy correction. 
 

Note: Rotational entropy computed according to Herzberg 
Infrared and Raman Spectra, Chapter V,1, Van Nostrand Reinhold, 1945 
Point Group:  C1, Symmetry Number:   1  
Rotational constants in cm-1:     0.055524     0.021841     0.021547 

Vibrational entropy computed according to the QRRHO of S. Grimme
Chem.Eur.J. 2012 18 9955


-------
ENTROPY
-------

The entropy contributions are T*S = T*(S(el)+S(vib)+S(rot)+S(trans))
     S(el)   - electronic entropy
     S(vib)  - vibrational entropy
     S(rot)  - rotational entropy
     S(trans)- translational entropy
The entropies will be listed as multiplied by the temperature to get
units of energy

Electronic entropy                ...      0.00000000 Eh      0.00 kcal/mol
Vibrational entropy               ...      0.02310875 Eh     14.50 kcal/mol
Rotational entropy                ...      0.01449250 Eh      9.09 kcal/mol
Translational entropy             ...      0.01957491 Eh     12.28 kcal/mol
-----------------------------------------------------------------------
Final entropy term                ...      0.05717616 Eh     35.88 kcal/mol

In case the symmetry of your molecule has not been determined correctly
or in case you have a reason to use a different symmetry number we print 
out the resulting rotational entropy values for sn=1,12 :
 --------------------------------------------------------
|  sn= 1 | S(rot)=       0.01449250 Eh      9.09 kcal/mol|
|  sn= 2 | S(rot)=       0.01383804 Eh      8.68 kcal/mol|
|  sn= 3 | S(rot)=       0.01345521 Eh      8.44 kcal/mol|
|  sn= 4 | S(rot)=       0.01318359 Eh      8.27 kcal/mol|
|  sn= 5 | S(rot)=       0.01297290 Eh      8.14 kcal/mol|
|  sn= 6 | S(rot)=       0.01280075 Eh      8.03 kcal/mol|
|  sn= 7 | S(rot)=       0.01265521 Eh      7.94 kcal/mol|
|  sn= 8 | S(rot)=       0.01252913 Eh      7.86 kcal/mol|
|  sn= 9 | S(rot)=       0.01241792 Eh      7.79 kcal/mol|
|  sn=10 | S(rot)=       0.01231844 Eh      7.73 kcal/mol|
|  sn=11 | S(rot)=       0.01222845 Eh      7.67 kcal/mol|
|  sn=12 | S(rot)=       0.01214630 Eh      7.62 kcal/mol|
 --------------------------------------------------------


-------------------
GIBBS FREE ENERGY
-------------------

The Gibbs free energy is G = H - T*S

Total enthalpy                    ...   -929.52467190 Eh 
Total entropy correction          ...     -0.05717616 Eh    -35.88 kcal/mol
-----------------------------------------------------------------------
Final Gibbs free energy         ...   -929.58184806 Eh

For completeness - the Gibbs free energy minus the electronic energy
G-E(el)                           ...      0.16321368 Eh    102.42 kcal/mol


Timings for individual modules:

Sum of individual times         ...     4178.626 sec (=  69.644 min)
GTO integral calculation        ...        4.676 sec (=   0.078 min)   0.1 %
SCF iterations                  ...     1843.227 sec (=  30.720 min)  44.1 %
SCF Gradient evaluation         ...      637.238 sec (=  10.621 min)  15.2 %
Geometry relaxation             ...        1.059 sec (=   0.018 min)   0.0 %
Analytical frequency calculation...     1692.425 sec (=  28.207 min)  40.5 %
                             ****ORCA TERMINATED NORMALLY****
TOTAL RUN TIME: 0 days 1 hours 9 minutes 40 seconds 257 msec
