
                                 *****************
                                 * O   R   C   A *
                                 *****************

                                            #,                                       
                                            ###                                      
                                            ####                                     
                                            #####                                    
                                            ######                                   
                                           ########,                                 
                                     ,,################,,,,,                         
                               ,,#################################,,                 
                          ,,##########################################,,             
                       ,#########################################, ''#####,          
                    ,#############################################,,   '####,        
                  ,##################################################,,,,####,       
                ,###########''''           ''''###############################       
              ,#####''   ,,,,##########,,,,          '''####'''          '####       
            ,##' ,,,,###########################,,,                        '##       
           ' ,,###''''                  '''############,,,                           
         ,,##''                                '''############,,,,        ,,,,,,###''
      ,#''                                            '''#######################'''  
     '                                                          ''''####''''         
             ,#######,   #######,   ,#######,      ##                                
            ,#'     '#,  ##    ##  ,#'     '#,    #''#        ######   ,####,        
            ##       ##  ##   ,#'  ##            #'  '#       #        #'  '#        
            ##       ##  #######   ##           ,######,      #####,   #    #        
            '#,     ,#'  ##    ##  '#,     ,#' ,#      #,         ##   #,  ,#        
             '#######'   ##     ##  '#######'  #'      '#     #####' # '####'        



                  #######################################################
                  #                        -***-                        #
                  #          Department of theory and spectroscopy      #
                  #    Directorship and core code : Frank Neese         #
                  #        Max Planck Institute fuer Kohlenforschung    #
                  #                Kaiser Wilhelm Platz 1               #
                  #                 D-45470 Muelheim/Ruhr               #
                  #                      Germany                        #
                  #                                                     #
                  #                  All rights reserved                #
                  #                        -***-                        #
                  #######################################################


                         Program Version 5.0.3 -  RELEASE  -


 With contributions from (in alphabetic order):
   Daniel Aravena         : Magnetic Suceptibility
   Michael Atanasov       : Ab Initio Ligand Field Theory (pilot matlab implementation)
   Alexander A. Auer      : GIAO ZORA, VPT2 properties, NMR spectrum
   Ute Becker             : Parallelization
   Giovanni Bistoni       : ED, misc. LED, open-shell LED, HFLD
   Martin Brehm           : Molecular dynamics
   Dmytro Bykov           : SCF Hessian
   Vijay G. Chilkuri      : MRCI spin determinant printing, contributions to CSF-ICE
   Dipayan Datta          : RHF DLPNO-CCSD density
   Achintya Kumar Dutta   : EOM-CC, STEOM-CC
   Dmitry Ganyushin       : Spin-Orbit,Spin-Spin,Magnetic field MRCI
   Miquel Garcia          : C-PCM and meta-GGA Hessian, CC/C-PCM, Gaussian charge scheme
   Yang Guo               : DLPNO-NEVPT2, F12-NEVPT2, CIM, IAO-localization
   Andreas Hansen         : Spin unrestricted coupled pair/coupled cluster methods
   Benjamin Helmich-Paris : MC-RPA, TRAH-SCF, COSX integrals
   Lee Huntington         : MR-EOM, pCC
   Robert Izsak           : Overlap fitted RIJCOSX, COSX-SCS-MP3, EOM
   Marcus Kettner         : VPT2
   Christian Kollmar      : KDIIS, OOCD, Brueckner-CCSD(T), CCSD density, CASPT2, CASPT2-K
   Simone Kossmann        : Meta GGA functionals, TD-DFT gradient, OOMP2, MP2 Hessian
   Martin Krupicka        : Initial AUTO-CI
   Lucas Lang             : DCDCAS
   Marvin Lechner         : AUTO-CI (C++ implementation), FIC-MRCC
   Dagmar Lenk            : GEPOL surface, SMD
   Dimitrios Liakos       : Extrapolation schemes; Compound Job, initial MDCI parallelization
   Dimitrios Manganas     : Further ROCIS development; embedding schemes
   Dimitrios Pantazis     : SARC Basis sets
   Anastasios Papadopoulos: AUTO-CI, single reference methods and gradients
   Taras Petrenko         : DFT Hessian,TD-DFT gradient, ASA, ECA, R-Raman, ABS, FL, XAS/XES, NRVS
   Peter Pinski           : DLPNO-MP2, DLPNO-MP2 Gradient
   Christoph Reimann      : Effective Core Potentials
   Marius Retegan         : Local ZFS, SOC
   Christoph Riplinger    : Optimizer, TS searches, QM/MM, DLPNO-CCSD(T), (RO)-DLPNO pert. Triples
   Tobias Risthaus        : Range-separated hybrids, TD-DFT gradient, RPA, STAB
   Michael Roemelt        : Original ROCIS implementation
   Masaaki Saitow         : Open-shell DLPNO-CCSD energy and density
   Barbara Sandhoefer     : DKH picture change effects
   Avijit Sen             : IP-ROCIS
   Kantharuban Sivalingam : CASSCF convergence, NEVPT2, FIC-MRCI
   Bernardo de Souza      : ESD, SOC TD-DFT
   Georgi Stoychev        : AutoAux, RI-MP2 NMR, DLPNO-MP2 response
   Willem Van den Heuvel  : Paramagnetic NMR
   Boris Wezisla          : Elementary symmetry handling
   Frank Wennmohs         : Technical directorship


 We gratefully acknowledge several colleagues who have allowed us to
 interface, adapt or use parts of their codes:
   Stefan Grimme, W. Hujo, H. Kruse, P. Pracht,  : VdW corrections, initial TS optimization,
                  C. Bannwarth, S. Ehlert          DFT functionals, gCP, sTDA/sTD-DF
   Ed Valeev, F. Pavosevic, A. Kumar             : LibInt (2-el integral package), F12 methods
   Garnet Chan, S. Sharma, J. Yang, R. Olivares  : DMRG
   Ulf Ekstrom                                   : XCFun DFT Library
   Mihaly Kallay                                 : mrcc  (arbitrary order and MRCC methods)
   Jiri Pittner, Ondrej Demel                    : Mk-CCSD
   Frank Weinhold                                : gennbo (NPA and NBO analysis)
   Christopher J. Cramer and Donald G. Truhlar   : smd solvation model
   Lars Goerigk                                  : TD-DFT with DH, B97 family of functionals
   V. Asgeirsson, H. Jonsson                     : NEB implementation
   FAccTs GmbH                                   : IRC, NEB, NEB-TS, DLPNO-Multilevel, CI-OPT
                                                   MM, QMMM, 2- and 3-layer-ONIOM, Crystal-QMMM,
                                                   LR-CPCM, SF, NACMEs, symmetry and pop. for TD-DFT,
                                                   nearIR, NL-DFT gradient (VV10), updates on ESD,
                                                   ML-optimized integration grids
   S Lehtola, MJT Oliveira, MAL Marques          : LibXC Library
   Liviu Ungur et al                             : ANISO software


 Your calculation uses the libint2 library for the computation of 2-el integrals
 For citations please refer to: http://libint.valeyev.net

 Your ORCA version has been built with support for libXC version: 5.1.0
 For citations please refer to: https://tddft.org/programs/libxc/

 This ORCA versions uses:
   CBLAS   interface :  Fast vector & matrix operations
   LAPACKE interface :  Fast linear algebra routines
   SCALAPACK package :  Parallel linear algebra routines
   Shared memory     :  Shared parallel matrices
   BLAS/LAPACK       :  OpenBLAS 0.3.19 NO_AFFINITY VORTEX SINGLE_THREADED
        Core in use  :  VORTEX
   Copyright (c) 2011-2014, The OpenBLAS Project


Your calculation utilizes the atom-pairwise dispersion correction
with the Becke-Johnson damping scheme (D3BJ)
Cite in your paper:
S.Grimme, S.Ehrlich, L.Goerigk, J Comput Chem, (2011), 32, 1456–1465 
S.Grimme, J.Antony, S.Ehrlich and H.Krieg, J.Chem.Phys., 132, (2010), 154104 
   

================================================================================

----- Orbital basis set information -----
Your calculation utilizes the basis: def2-TZVP
   F. Weigend and R. Ahlrichs, Phys. Chem. Chem. Phys. 7, 3297 (2005).

----- AuxJ basis set information -----
Your calculation utilizes the auxiliary basis: def2/J
   F. Weigend, Phys. Chem. Chem. Phys. 8, 1057 (2006).

================================================================================
                                        WARNINGS
                       Please study these warnings very carefully!
================================================================================

WARNING: Old DensityContainer found on disk!
         Will remove this file - 
         If you want to keep old densities, please start your calculation with a different basename. 


WARNING: Geometry Optimization
  ===> : Switching off AutoStart
         For restart on a previous wavefunction, please use MOREAD

INFO   : the flag for use of the SHARK integral package has been found!

================================================================================
                                       INPUT FILE
================================================================================
NAME = ../Sulphur/SI5_0.5.inp
|  1> # avogadro generated ORCA input file 
|  2> # Basic Mode
|  3> # 
|  4> ! BP86 D3BJ OPT FREQ def2-TZVP def2/J
|  5> %maxcore 4096
|  6> %PAL NPROCS 8 END 
|  7> %geom
|  8> POTENTIALS
|  9> {C 5 40 0.5}
| 10> end
| 11> end
| 12> 
| 13> * xyz 0 1
| 14>   C      1.346982   -1.065954    2.386387
| 15>   C      0.189135   -1.174930    1.400425
| 16>   C     -0.560851   -0.033122    1.081535
| 17>   H     -0.350953    0.896183    1.616326
| 18>   C     -1.587665   -0.046139    0.115175
| 19>   C     -2.352755    1.183248   -0.247734
| 20>   C     -1.876260   -1.277069   -0.503765
| 21>   H     -2.670840   -1.338614   -1.246972
| 22>   C     -1.144732   -2.423284   -0.193928
| 23>   H     -1.380767   -3.364604   -0.692722
| 24>   C     -0.112698   -2.376899    0.744518
| 25>   H      0.452844   -3.282733    0.968970
| 26>   C      2.634342   -0.657062    1.651875
| 27>   C      1.583624   -2.344401    3.223320
| 28>   H      1.087107   -0.256917    3.091674
| 29>   S      2.532750   -1.894165    4.748883
| 30>   H      2.164883   -3.100677    2.678926
| 31>   H      0.637212   -2.794659    3.552356
| 32>   H      3.466267   -0.543088    2.361488
| 33>   H      2.495866    0.293634    1.120607
| 34>   H      2.907946   -1.422876    0.910982
| 35>   C     -3.744391    1.002860   -0.797882
| 36>   C     -1.819747    2.410012   -0.107332
| 37>   H     -0.798324    2.561294    0.242078
| 38>   H     -2.390868    3.303844   -0.360914
| 39>   S      4.326472   -2.893188    4.804649
| 40>   S      4.241693   -4.344833    6.347386
| 41>   S      4.405003   -6.299537    5.615815
| 42>   S      6.383927   -6.875740    5.693538
| 43>   C      6.600180   -7.530431    7.410496
| 44>   C      8.040597   -8.050503    7.594018
| 45>   H      5.866050   -8.332673    7.558375
| 46>   H      6.384321   -6.708020    8.106098
| 47>   C      8.224674   -8.843607    8.887851
| 48>   C      9.058890   -6.895416    7.542620
| 49>   H      8.258088   -8.738689    6.758090
| 50>   H     10.083190   -7.276413    7.647675
| 51>   H      8.873874   -6.191383    8.367374
| 52>   H      8.988438   -6.341400    6.596170
| 53>   C      7.413780   -8.636503   10.008951
| 54>   C      7.658479   -9.336520   11.194871
| 55>   C      8.718435  -10.231907   11.284227
| 56>   C      9.571895  -10.454156   10.185038
| 57>   C      9.285696   -9.761621    8.992053
| 58>   H      6.579904   -7.935437    9.964223
| 59>   H      7.004329   -9.185754   12.055072
| 60>   H      8.875617  -10.791494   12.206492
| 61>   C     10.722825  -11.398062   10.293530
| 62>   H      9.918177   -9.921164    8.116194
| 63>   C     11.220123  -12.034129    9.020345
| 64>   C     11.314402  -11.659110   11.472495
| 65>   H     11.007552  -11.170972   12.397348
| 66>   H     12.145175  -12.362451   11.538661
| 67>   H     -4.356457    0.369678   -0.137886
| 68>   H     -3.726729    0.513350   -1.784412
| 69>   H     -4.243138    1.972577   -0.917771
| 70>   H     10.399963  -12.518726    8.469163
| 71>   H     11.992988  -12.782964    9.233456
| 72>   H     11.660134  -11.284193    8.344011
| 73> **                         ****END OF INPUT****
================================================================================

                       *****************************
                       * Geometry Optimization Run *
                       *****************************

Geometry optimization settings:
Update method            Update   .... BFGS
Choice of coordinates    CoordSys .... Z-matrix Internals
Initial Hessian          InHess   .... Almoef's Model

Convergence Tolerances:
Energy Change            TolE     ....  5.0000e-06 Eh
Max. Gradient            TolMAXG  ....  3.0000e-04 Eh/bohr
RMS Gradient             TolRMSG  ....  1.0000e-04 Eh/bohr
Max. Displacement        TolMAXD  ....  4.0000e-03 bohr
RMS Displacement         TolRMSD  ....  2.0000e-03 bohr
Strict Convergence                ....  False
------------------------------------------------------------------------------
                        ORCA OPTIMIZATION COORDINATE SETUP
------------------------------------------------------------------------------

The optimization will be done in new redundant internal coordinates
Making redundant internal coordinates   ...  (new redundants) done
Evaluating the initial hessian          ...  (Almloef) done
Evaluating the coordinates              ...  done
Calculating the B-matrix                .... done
Calculating the G-matrix                .... done
Diagonalizing the G-matrix              .... done
Small eigenvalue found = 3.623e-04
Small eigenvalue found = 4.210e-04
Small eigenvalue found = 1.511e-03
Small eigenvalue found = 2.118e-03
Small eigenvalue found = 2.905e-03
Small eigenvalue found = 3.919e-03
Small eigenvalue found = 1.078e-02
Small eigenvalue found = 1.498e-02
Small eigenvalue found = 2.303e-02
Small eigenvalue found = 2.910e-02
The first mode is                       ....  124
The number of degrees of freedom        ....  171

    -----------------------------------------------------------------
                    Redundant Internal Coordinates


    -----------------------------------------------------------------
         Definition                    Initial Value    Approx d2E/dq
    -----------------------------------------------------------------
      1. B(C   1,C   0)                  1.5247         0.380967   
      2. B(C   2,C   1)                  1.4028         0.596060   
      3. B(H   3,C   2)                  1.0926         0.356742   
      4. B(C   4,C   2)                  1.4101         0.580334   
      5. B(C   5,C   4)                  1.4928         0.428277   
      6. B(C   6,C   4)                  1.4077         0.585506   
      7. B(H   7,C   6)                  1.0897         0.360463   
      8. B(C   8,C   6)                  1.3946         0.614301   
      9. B(H   9,C   8)                  1.0911         0.358592   
     10. B(C  10,C   8)                  1.3957         0.611891   
     11. B(C  10,C   1)                  1.4022         0.597505   
     12. B(H  11,C  10)                  1.0912         0.358495   
     13. B(C  12,C   0)                  1.5375         0.363383   
     14. B(C  13,C   0)                  1.5462         0.351929   
     15. B(H  14,C   0)                  1.1043         0.341656   
     16. B(S  15,C  13)                  1.8523         0.308310   
     17. B(H  16,C  13)                  1.0983         0.349334   
     18. B(H  17,C  13)                  1.0985         0.349035   
     19. B(H  18,C  12)                  1.0994         0.347901   
     20. B(H  19,C  12)                  1.0978         0.349882   
     21. B(H  20,C  12)                  1.1001         0.346965   
     22. B(C  21,C   5)                  1.5073         0.406113   
     23. B(C  22,C   5)                  1.3449         0.737378   
     24. B(H  23,C  22)                  1.0901         0.359992   
     25. B(H  24,C  22)                  1.0906         0.359301   
     26. B(S  25,S  15)                  2.0539         0.396304   
     27. B(S  26,S  25)                  2.1200         0.310863   
     28. B(S  27,S  26)                  2.0935         0.342679   
     29. B(S  28,S  27)                  2.0626         0.383913   
     30. B(C  29,S  28)                  1.8502         0.310633   
     31. B(C  30,C  29)                  1.5424         0.356957   
     32. B(H  31,C  29)                  1.0975         0.350372   
     33. B(H  32,C  29)                  1.0986         0.348962   
     34. B(C  33,C  30)                  1.5287         0.375373   
     35. B(C  34,C  30)                  1.5407         0.359162   
     36. B(H  35,C  30)                  1.1044         0.341558   
     37. B(H  36,C  34)                  1.0979         0.349799   
     38. B(H  37,C  34)                  1.1001         0.347046   
     39. B(H  38,C  34)                  1.0989         0.348468   
     40. B(C  39,C  33)                  1.3990         0.604393   
     41. B(C  40,C  39)                  1.3987         0.605186   
     42. B(C  41,C  40)                  1.3904         0.623882   
     43. B(C  42,C  41)                  1.4093         0.582124   
     44. B(C  43,C  42)                  1.4088         0.583094   
     45. B(C  43,C  33)                  1.4069         0.587180   
     46. B(H  44,C  39)                  1.0903         0.359649   
     47. B(H  45,C  40)                  1.0911         0.358594   
     48. B(H  46,C  41)                  1.0901         0.359908   
     49. B(C  47,C  42)                  1.4924         0.428851   
     50. B(H  48,C  43)                  1.0921         0.357373   
     51. B(C  49,C  47)                  1.5076         0.405602   
     52. B(C  50,C  47)                  1.3446         0.738076   
     53. B(H  51,C  50)                  1.0899         0.360289   
     54. B(H  52,C  50)                  1.0905         0.359403   
     55. B(H  53,C  21)                  1.1005         0.346452   
     56. B(H  54,C  21)                  1.1014         0.345278   
     57. B(H  55,C  21)                  1.0970         0.350920   
     58. B(H  56,C  49)                  1.1006         0.346360   
     59. B(H  57,C  49)                  1.0970         0.350910   
     60. B(H  58,C  49)                  1.1016         0.345124   
     61. A(C  13,C   0,H  14)          107.2210         0.318415   
     62. A(C  12,C   0,C  13)          110.5066         0.357981   
     63. A(C   1,C   0,C  13)          114.0259         0.360873   
     64. A(C   1,C   0,H  14)          106.6583         0.322569   
     65. A(C  12,C   0,H  14)          107.8972         0.320084   
     66. A(C   1,C   0,C  12)          110.2383         0.362851   
     67. A(C   2,C   1,C  10)          118.4446         0.428155   
     68. A(C   0,C   1,C   2)          119.6584         0.395309   
     69. A(C   0,C   1,C  10)          121.8197         0.395477   
     70. A(C   1,C   2,C   4)          122.5193         0.425924   
     71. A(C   1,C   2,H   3)          118.5771         0.350013   
     72. A(H   3,C   2,C   4)          118.8949         0.348438   
     73. A(C   2,C   4,C   6)          117.3024         0.424565   
     74. A(C   2,C   4,C   5)          122.1550         0.401635   
     75. A(C   5,C   4,C   6)          120.5422         0.402264   
     76. A(C  21,C   5,C  22)          120.8762         0.415104   
     77. A(C   4,C   5,C  22)          121.5137         0.419050   
     78. A(C   4,C   5,C  21)          117.6050         0.377369   
     79. A(C   4,C   6,C   8)          120.8952         0.428913   
     80. A(C   4,C   6,H   7)          119.9171         0.349571   
     81. A(H   7,C   6,C   8)          119.1812         0.352418   
     82. A(H   9,C   8,C  10)          119.7357         0.351874   
     83. A(C   6,C   8,H   9)          119.6045         0.352108   
     84. A(C   6,C   8,C  10)          120.6597         0.432321   
     85. A(C   8,C  10,H  11)          119.6004         0.351858   
     86. A(C   1,C  10,H  11)          120.2527         0.350446   
     87. A(C   1,C  10,C   8)          120.1457         0.430174   
     88. A(C   0,C  12,H  18)          110.6595         0.321033   
     89. A(H  19,C  12,H  20)          107.9560         0.287849   
     90. A(H  18,C  12,H  20)          108.5824         0.287594   
     91. A(C   0,C  12,H  20)          110.1722         0.320892   
     92. A(H  18,C  12,H  19)          108.5437         0.287970   
     93. A(C   0,C  12,H  19)          110.8465         0.321331   
     94. A(H  16,C  13,H  17)          108.7962         0.288047   
     95. A(S  15,C  13,H  17)          107.1217         0.328431   
     96. A(C   0,C  13,H  17)          111.6644         0.319527   
     97. A(S  15,C  13,H  16)          107.7247         0.328478   
     98. A(C   0,C  13,H  16)          112.4606         0.319572   
     99. A(C   0,C  13,S  15)          108.8593         0.366353   
    100. A(C  13,S  15,S  25)          110.5871         0.412246   
    101. A(H  54,C  21,H  55)          107.5932         0.287763   
    102. A(H  53,C  21,H  54)          106.8798         0.287188   
    103. A(C   5,C  21,H  53)          111.3128         0.326721   
    104. A(C   5,C  21,H  55)          110.7233         0.327412   
    105. A(C   5,C  21,H  54)          111.4261         0.326539   
    106. A(H  53,C  21,H  55)          108.7397         0.287916   
    107. A(H  23,C  22,H  24)          116.8386         0.290724   
    108. A(C   5,C  22,H  24)          121.0488         0.363333   
    109. A(C   5,C  22,H  23)          122.1006         0.363453   
    110. A(S  15,S  25,S  26)          108.5351         0.432325   
    111. A(S  25,S  26,S  27)          112.4528         0.421211   
    112. A(S  26,S  27,S  28)          108.8152         0.437467   
    113. A(S  27,S  28,C  29)          104.2385         0.410476   
    114. A(H  31,C  29,H  32)          109.2983         0.288171   
    115. A(C  30,C  29,H  32)          111.1365         0.320257   
    116. A(S  28,C  29,H  32)          107.4412         0.328827   
    117. A(S  28,C  29,H  31)          107.7893         0.329046   
    118. A(S  28,C  29,C  30)          109.8086         0.367718   
    119. A(C  30,C  29,H  31)          111.2352         0.320468   
    120. A(C  34,C  30,H  35)          108.1656         0.319458   
    121. A(C  33,C  30,H  35)          107.0749         0.321773   
    122. A(C  29,C  30,H  35)          107.6959         0.319137   
    123. A(C  33,C  30,C  34)          109.7312         0.361215   
    124. A(C  29,C  30,C  34)          111.1289         0.358133   
    125. A(C  29,C  30,C  33)          112.8361         0.360836   
    126. A(C  39,C  33,C  43)          118.3174         0.427883   
    127. A(C  30,C  33,C  43)          119.4738         0.393250   
    128. A(C  30,C  33,C  39)          122.1156         0.395246   
    129. A(C  30,C  34,H  38)          111.3656         0.320506   
    130. A(H  36,C  34,H  37)          107.8947         0.287849   
    131. A(C  30,C  34,H  37)          110.0990         0.320291   
    132. A(C  30,C  34,H  36)          110.6867         0.320705   
    133. A(H  37,C  34,H  38)          108.1965         0.287678   
    134. A(H  36,C  34,H  38)          108.4918         0.288033   
    135. A(C  40,C  39,H  44)          119.3656         0.351394   
    136. A(C  33,C  39,H  44)          120.3702         0.351316   
    137. A(C  33,C  39,C  40)          120.2617         0.430208   
    138. A(C  41,C  40,H  45)          119.6926         0.353031   
    139. A(C  39,C  40,H  45)          119.6297         0.351220   
    140. A(C  39,C  40,C  41)          120.6747         0.432668   
    141. A(C  42,C  41,H  46)          119.4452         0.349139   
    142. A(C  40,C  41,H  46)          119.6599         0.353250   
    143. A(C  40,C  41,C  42)          120.8714         0.429659   
    144. A(C  43,C  42,C  47)          121.9464         0.402066   
    145. A(C  41,C  42,C  47)          120.6688         0.401948   
    146. A(C  41,C  42,C  43)          117.3830         0.424485   
    147. A(C  42,C  43,H  48)          119.3197         0.348821   
    148. A(C  33,C  43,H  48)          118.2097         0.349232   
    149. A(C  33,C  43,C  42)          122.4581         0.425142   
    150. A(C  49,C  47,C  50)          120.8920         0.415081   
    151. A(C  42,C  47,C  50)          121.7222         0.419221   
    152. A(C  42,C  47,C  49)          117.3758         0.377374   
    153. A(H  57,C  49,H  58)          107.6121         0.287742   
    154. A(H  56,C  49,H  58)          106.8543         0.287156   
    155. A(C  47,C  49,H  58)          111.2868         0.326447   
    156. A(H  56,C  49,H  57)          108.7676         0.287903   
    157. A(C  47,C  49,H  57)          110.8745         0.327342   
    158. A(C  47,C  49,H  56)          111.2778         0.326639   
    159. A(H  51,C  50,H  52)          116.8637         0.290775   
    160. A(C  47,C  50,H  52)          120.9017         0.363410   
    161. A(C  47,C  50,H  51)          122.2232         0.363563   
    162. D(C  10,C   1,C   0,C  13)    -34.8000         0.010827   
    163. D(C   2,C   1,C   0,C  13)    148.4476         0.010827   
    164. D(C   2,C   1,C   0,H  14)     30.3014         0.010827   
    165. D(C  10,C   1,C   0,C  12)     90.1690         0.010827   
    166. D(C  10,C   1,C   0,H  14)   -152.9462         0.010827   
    167. D(C   2,C   1,C   0,C  12)    -86.5834         0.010827   
    168. D(H   3,C   2,C   1,C  10)    177.8915         0.024476   
    169. D(C   4,C   2,C   1,C   0)    175.8461         0.024476   
    170. D(C   4,C   2,C   1,C  10)     -1.0157         0.024476   
    171. D(H   3,C   2,C   1,C   0)     -5.2468         0.024476   
    172. D(C   6,C   4,C   2,C   1)      2.1150         0.023140   
    173. D(C   5,C   4,C   2,H   3)      3.0021         0.023140   
    174. D(C   6,C   4,C   2,H   3)   -176.7888         0.023140   
    175. D(C   5,C   4,C   2,C   1)   -178.0941         0.023140   
    176. D(C  21,C   5,C   4,C   6)     25.3192         0.012535   
    177. D(C  22,C   5,C   4,C   6)   -153.8637         0.012535   
    178. D(C  22,C   5,C   4,C   2)     26.3521         0.012535   
    179. D(C  21,C   5,C   4,C   2)   -154.4651         0.012535   
    180. D(C   8,C   6,C   4,C   5)    178.4402         0.023574   
    181. D(H   7,C   6,C   4,C   2)    179.1696         0.023574   
    182. D(C   8,C   6,C   4,C   2)     -1.7654         0.023574   
    183. D(H   7,C   6,C   4,C   5)     -0.6248         0.023574   
    184. D(C  10,C   8,C   6,H   7)    179.4355         0.026084   
    185. D(H   9,C   8,C   6,H   7)     -0.4035         0.026084   
    186. D(H   9,C   8,C   6,C   4)   -179.4753         0.026084   
    187. D(C  10,C   8,C   6,C   4)      0.3637         0.026084   
    188. D(H  11,C  10,C   1,C   2)    179.9221         0.024601   
    189. D(H  11,C  10,C   1,C   0)      3.1317         0.024601   
    190. D(C   8,C  10,C   1,C   2)     -0.4789         0.024601   
    191. D(C   1,C  10,C   8,C   6)      0.7997         0.025868   
    192. D(C   8,C  10,C   1,C   0)   -177.2693         0.024601   
    193. D(C   1,C  10,C   8,H   9)   -179.3614         0.025868   
    194. D(H  11,C  10,C   8,C   6)   -179.5986         0.025868   
    195. D(H  11,C  10,C   8,H   9)      0.2402         0.025868   
    196. D(H  20,C  12,C   0,C  13)     65.1193         0.010580   
    197. D(H  20,C  12,C   0,C   1)    -61.8361         0.010580   
    198. D(H  19,C  12,C   0,H  14)    -58.5197         0.010580   
    199. D(H  19,C  12,C   0,C  13)   -175.4525         0.010580   
    200. D(H  19,C  12,C   0,C   1)     57.5921         0.010580   
    201. D(H  18,C  12,C   0,H  14)     61.9629         0.010580   
    202. D(H  18,C  12,C   0,C  13)    -54.9699         0.010580   
    203. D(H  20,C  12,C   0,H  14)   -177.9479         0.010580   
    204. D(H  18,C  12,C   0,C   1)    178.0747         0.010580   
    205. D(H  17,C  13,C   0,H  14)     76.7769         0.009970   
    206. D(H  17,C  13,C   0,C  12)   -165.8729         0.009970   
    207. D(H  17,C  13,C   0,C   1)    -41.0468         0.009970   
    208. D(H  16,C  13,C   0,H  14)   -160.5825         0.009970   
    209. D(H  16,C  13,C   0,C  12)    -43.2324         0.009970   
    210. D(H  16,C  13,C   0,C   1)     81.5937         0.009970   
    211. D(S  15,C  13,C   0,H  14)    -41.2857         0.009970   
    212. D(S  15,C  13,C   0,C  12)     76.0645         0.009970   
    213. D(S  15,C  13,C   0,C   1)   -159.1094         0.009970   
    214. D(S  25,S  15,C  13,H  17)    119.5618         0.003007   
    215. D(S  25,S  15,C  13,H  16)      2.6637         0.003007   
    216. D(S  25,S  15,C  13,C   0)   -119.5457         0.003007   
    217. D(H  55,C  21,C   5,C  22)     -7.2636         0.012224   
    218. D(H  55,C  21,C   5,C   4)    173.5481         0.012224   
    219. D(H  54,C  21,C   5,C  22)    112.4473         0.012224   
    220. D(H  54,C  21,C   5,C   4)    -66.7410         0.012224   
    221. D(H  53,C  21,C   5,C  22)   -128.3488         0.012224   
    222. D(H  53,C  21,C   5,C   4)     52.4629         0.012224   
    223. D(H  23,C  22,C   5,C  21)   -176.9398         0.038651   
    224. D(H  23,C  22,C   5,C   4)      2.2164         0.038651   
    225. D(H  24,C  22,C   5,C  21)      1.7593         0.038651   
    226. D(H  24,C  22,C   5,C   4)   -179.0845         0.038651   
    227. D(S  26,S  25,S  15,C  13)   -109.7986         0.002155   
    228. D(S  27,S  26,S  25,S  15)    116.5291         0.001904   
    229. D(S  28,S  27,S  26,S  25)     93.7467         0.001991   
    230. D(C  29,S  28,S  27,S  26)     85.9936         0.002115   
    231. D(H  32,C  29,S  28,S  27)    -61.0558         0.003030   
    232. D(H  31,C  29,S  28,S  27)     56.6294         0.003030   
    233. D(C  30,C  29,S  28,S  27)    177.9534         0.003030   
    234. D(H  35,C  30,C  29,H  32)   -169.9167         0.010235   
    235. D(H  35,C  30,C  29,H  31)     68.0535         0.010235   
    236. D(H  35,C  30,C  29,S  28)    -51.1788         0.010235   
    237. D(C  34,C  30,C  29,H  32)    -51.6137         0.010235   
    238. D(C  34,C  30,C  29,H  31)   -173.6435         0.010235   
    239. D(C  34,C  30,C  29,S  28)     67.1243         0.010235   
    240. D(C  33,C  30,C  29,H  32)     72.1285         0.010235   
    241. D(C  33,C  30,C  29,H  31)    -49.9013         0.010235   
    242. D(C  33,C  30,C  29,S  28)   -169.1335         0.010235   
    243. D(C  43,C  33,C  30,H  35)     39.3508         0.010531   
    244. D(C  43,C  33,C  30,C  34)    -77.8204         0.010531   
    245. D(C  43,C  33,C  30,C  29)    157.6692         0.010531   
    246. D(C  39,C  33,C  30,H  35)   -144.2195         0.010531   
    247. D(C  39,C  33,C  30,C  34)     98.6093         0.010531   
    248. D(C  39,C  33,C  30,C  29)    -25.9011         0.010531   
    249. D(H  38,C  34,C  30,H  35)     60.2790         0.010353   
    250. D(H  38,C  34,C  30,C  29)    -57.7402         0.010353   
    251. D(H  37,C  34,C  30,H  35)   -179.7065         0.010353   
    252. D(H  37,C  34,C  30,C  33)    -63.2202         0.010353   
    253. D(H  37,C  34,C  30,C  29)     62.2744         0.010353   
    254. D(H  36,C  34,C  30,H  35)    -60.5026         0.010353   
    255. D(H  38,C  34,C  30,C  33)    176.7652         0.010353   
    256. D(H  36,C  34,C  30,C  33)     55.9837         0.010353   
    257. D(H  36,C  34,C  30,C  29)   -178.5217         0.010353   
    258. D(H  44,C  39,C  33,C  43)   -179.7711         0.025202   
    259. D(H  44,C  39,C  33,C  30)      3.7596         0.025202   
    260. D(C  40,C  39,C  33,C  43)     -0.3418         0.025202   
    261. D(C  40,C  39,C  33,C  30)   -176.8112         0.025202   
    262. D(H  45,C  40,C  39,H  44)      0.9720         0.025272   
    263. D(H  45,C  40,C  39,C  33)   -178.4630         0.025272   
    264. D(C  41,C  40,C  39,H  44)   -179.6668         0.025272   
    265. D(C  41,C  40,C  39,C  33)      0.8982         0.025272   
    266. D(H  46,C  41,C  40,H  45)      1.2365         0.026954   
    267. D(H  46,C  41,C  40,C  39)   -178.1242         0.026954   
    268. D(C  42,C  41,C  40,H  45)    179.4628         0.026954   
    269. D(C  42,C  41,C  40,C  39)      0.1021         0.026954   
    270. D(C  47,C  42,C  41,H  46)     -2.8642         0.023289   
    271. D(C  47,C  42,C  41,C  40)    178.9058         0.023289   
    272. D(C  43,C  42,C  41,H  46)    176.6423         0.023289   
    273. D(C  43,C  42,C  41,C  40)     -1.5878         0.023289   
    274. D(H  48,C  43,C  42,C  47)      0.3681         0.023371   
    275. D(H  48,C  43,C  42,C  41)   -179.1316         0.023371   
    276. D(C  33,C  43,C  42,C  47)   -178.3225         0.023371   
    277. D(C  33,C  43,C  42,C  41)      2.1778         0.023371   
    278. D(H  48,C  43,C  33,C  39)   -179.9384         0.023716   
    279. D(H  48,C  43,C  33,C  30)     -3.3732         0.023716   
    280. D(C  42,C  43,C  33,C  39)     -1.2339         0.023716   
    281. D(C  42,C  43,C  33,C  30)    175.3312         0.023716   
    282. D(C  50,C  47,C  42,C  43)    154.0607         0.012568   
    283. D(C  50,C  47,C  42,C  41)    -26.4558         0.012568   
    284. D(C  49,C  47,C  42,C  43)    -24.7990         0.012568   
    285. D(C  49,C  47,C  42,C  41)    154.6845         0.012568   
    286. D(H  57,C  49,C  47,C  42)   -174.0713         0.012195   
    287. D(H  56,C  49,C  47,C  50)    128.2594         0.012195   
    288. D(H  56,C  49,C  47,C  42)    -52.8709         0.012195   
    289. D(H  58,C  49,C  47,C  50)   -112.6846         0.012195   
    290. D(H  58,C  49,C  47,C  42)     66.1851         0.012195   
    291. D(H  57,C  49,C  47,C  50)      7.0590         0.012195   
    292. D(H  52,C  50,C  47,C  49)     -2.0879         0.038731   
    293. D(H  52,C  50,C  47,C  42)    179.0920         0.038731   
    294. D(H  51,C  50,C  47,C  49)    176.6467         0.038731   
    295. D(H  51,C  50,C  47,C  42)     -2.1733         0.038731   
    -----------------------------------------------------------------

Number of atoms                         .... 59
Number of degrees of freedom            .... 295

         *************************************************************
         *                GEOMETRY OPTIMIZATION CYCLE   1            *
         *************************************************************
---------------------------------
CARTESIAN COORDINATES (ANGSTROEM)
---------------------------------
  C      1.346982   -1.065954    2.386387
  C      0.189135   -1.174930    1.400425
  C     -0.560851   -0.033122    1.081535
  H     -0.350953    0.896183    1.616326
  C     -1.587665   -0.046139    0.115175
  C     -2.352755    1.183248   -0.247734
  C     -1.876260   -1.277069   -0.503765
  H     -2.670840   -1.338614   -1.246972
  C     -1.144732   -2.423284   -0.193928
  H     -1.380767   -3.364604   -0.692722
  C     -0.112698   -2.376899    0.744518
  H      0.452844   -3.282733    0.968970
  C      2.634342   -0.657062    1.651875
  C      1.583624   -2.344401    3.223320
  H      1.087107   -0.256917    3.091674
  S      2.532750   -1.894165    4.748883
  H      2.164883   -3.100677    2.678926
  H      0.637212   -2.794659    3.552356
  H      3.466267   -0.543088    2.361488
  H      2.495866    0.293634    1.120607
  H      2.907946   -1.422876    0.910982
  C     -3.744391    1.002860   -0.797882
  C     -1.819747    2.410012   -0.107332
  H     -0.798324    2.561294    0.242078
  H     -2.390868    3.303844   -0.360914
  S      4.326472   -2.893188    4.804649
  S      4.241693   -4.344833    6.347386
  S      4.405003   -6.299537    5.615815
  S      6.383927   -6.875740    5.693538
  C      6.600180   -7.530431    7.410496
  C      8.040597   -8.050503    7.594018
  H      5.866050   -8.332673    7.558375
  H      6.384321   -6.708020    8.106098
  C      8.224674   -8.843607    8.887851
  C      9.058890   -6.895416    7.542620
  H      8.258088   -8.738689    6.758090
  H     10.083190   -7.276413    7.647675
  H      8.873874   -6.191383    8.367374
  H      8.988438   -6.341400    6.596170
  C      7.413780   -8.636503   10.008951
  C      7.658479   -9.336520   11.194871
  C      8.718435  -10.231907   11.284227
  C      9.571895  -10.454156   10.185038
  C      9.285696   -9.761621    8.992053
  H      6.579904   -7.935437    9.964223
  H      7.004329   -9.185754   12.055072
  H      8.875617  -10.791494   12.206492
  C     10.722825  -11.398062   10.293530
  H      9.918177   -9.921164    8.116194
  C     11.220123  -12.034129    9.020345
  C     11.314402  -11.659110   11.472495
  H     11.007552  -11.170972   12.397348
  H     12.145175  -12.362451   11.538661
  H     -4.356457    0.369678   -0.137886
  H     -3.726729    0.513350   -1.784412
  H     -4.243138    1.972577   -0.917771
  H     10.399963  -12.518726    8.469163
  H     11.992988  -12.782964    9.233456
  H     11.660134  -11.284193    8.344011

----------------------------
CARTESIAN COORDINATES (A.U.)
----------------------------
  NO LB      ZA    FRAG     MASS         X           Y           Z
   0 C     6.0000    0    12.011    2.545427   -2.014361    4.509618
   1 C     6.0000    0    12.011    0.357413   -2.220296    2.646420
   2 C     6.0000    0    12.011   -1.059855   -0.062592    2.043805
   3 H     1.0000    0     1.008   -0.663205    1.693540    3.054413
   4 C     6.0000    0    12.011   -3.000252   -0.087190    0.217649
   5 C     6.0000    0    12.011   -4.446063    2.236015   -0.468149
   6 C     6.0000    0    12.011   -3.545618   -2.413311   -0.951978
   7 H     1.0000    0     1.008   -5.047156   -2.529614   -2.356436
   8 C     6.0000    0    12.011   -2.163230   -4.579343   -0.366471
   9 H     1.0000    0     1.008   -2.609271   -6.358180   -1.309055
  10 C     6.0000    0    12.011   -0.212968   -4.491688    1.406935
  11 H     1.0000    0     1.008    0.855751   -6.203466    1.831088
  12 C     6.0000    0    12.011    4.978185   -1.241667    3.121591
  13 C     6.0000    0    12.011    2.992616   -4.430276    6.091192
  14 H     1.0000    0     1.008    2.054335   -0.485503    5.842417
  15 S    16.0000    0    32.060    4.786204   -3.579453    8.974088
  16 H     1.0000    0     1.008    4.091036   -5.859430    5.062436
  17 H     1.0000    0     1.008    1.204156   -5.281140    6.712980
  18 H     1.0000    0     1.008    6.550295   -1.026288    4.462566
  19 H     1.0000    0     1.008    4.716503    0.554888    2.117640
  20 H     1.0000    0     1.008    5.495222   -2.688846    1.721506
  21 C     6.0000    0    12.011   -7.075874    1.895131   -1.507778
  22 C     6.0000    0    12.011   -3.438823    4.554263   -0.202828
  23 H     1.0000    0     1.008   -1.508614    4.840144    0.457461
  24 H     1.0000    0     1.008   -4.518086    6.243360   -0.682029
  25 S    16.0000    0    32.060    8.175847   -5.467333    9.079471
  26 S    16.0000    0    32.060    8.015638   -8.210544   11.994821
  27 S    16.0000    0    32.060    8.324249  -11.904400   10.612352
  28 S    16.0000    0    32.060   12.063874  -12.993266   10.759228
  29 C     6.0000    0    12.011   12.472533  -14.230452   14.003808
  30 C     6.0000    0    12.011   15.194526  -15.213246   14.350614
  31 H     1.0000    0     1.008   11.085228  -15.746470   14.283259
  32 H     1.0000    0     1.008   12.064618  -12.676321   15.318305
  33 C     6.0000    0    12.011   15.542381  -16.711995   16.795604
  34 C     6.0000    0    12.011   17.118821  -13.030448   14.253486
  35 H     1.0000    0     1.008   15.605525  -16.513729   12.770939
  36 H     1.0000    0     1.008   19.054468  -13.750428   14.452011
  37 H     1.0000    0     1.008   16.769192  -11.700018   15.812045
  38 H     1.0000    0     1.008   16.985686  -11.983509   12.464955
  39 C     6.0000    0    12.011   14.010014  -16.320625   18.914176
  40 C     6.0000    0    12.011   14.472428  -17.643466   21.155240
  41 C     6.0000    0    12.011   16.475454  -19.335502   21.324099
  42 C     6.0000    0    12.011   18.088260  -19.755492   19.246932
  43 C     6.0000    0    12.011   17.547422  -18.446790   16.992518
  44 H     1.0000    0     1.008   12.434217  -14.995803   18.829653
  45 H     1.0000    0     1.008   13.236264  -17.358559   22.780785
  46 H     1.0000    0     1.008   16.772485  -20.392968   23.066927
  47 C     6.0000    0    12.011   20.263203  -21.539216   19.451953
  48 H     1.0000    0     1.008   18.742638  -18.748283   15.337384
  49 C     6.0000    0    12.011   21.202960  -22.741208   17.045982
  50 C     6.0000    0    12.011   21.381121  -22.032525   21.679874
  51 H     1.0000    0     1.008   20.801259  -21.110078   23.427593
  52 H     1.0000    0     1.008   22.951055  -23.361647   21.804909
  53 H     1.0000    0     1.008   -8.232511    0.698590   -0.260567
  54 H     1.0000    0     1.008   -7.042497    0.970091   -3.372050
  55 H     1.0000    0     1.008   -8.018369    3.727630   -1.734336
  56 H     1.0000    0     1.008   19.653082  -23.656964   16.004399
  57 H     1.0000    0     1.008   22.663463  -24.156301   17.448703
  58 H     1.0000    0     1.008   22.034460  -21.324034   15.767896

--------------------------------
INTERNAL COORDINATES (ANGSTROEM)
--------------------------------
 C      0   0   0     0.000000000000     0.00000000     0.00000000
 C      1   0   0     1.524666032097     0.00000000     0.00000000
 C      2   1   0     1.402816930736   119.65844446     0.00000000
 H      3   2   1     1.092550395684   118.57707843   354.75318466
 C      3   2   1     1.410095061506   122.51925456   175.84606235
 C      5   3   2     1.492802078693   122.15504854   181.90586059
 C      5   3   2     1.407679815343   117.30237649     2.11497881
 H      7   5   3     1.089725565578   119.91712313   179.16961359
 C      7   5   3     1.394611418130   120.89515979   358.23463935
 H      9   7   5     1.091142207992   119.60446656   180.52467662
 C      9   7   5     1.395681425074   120.65968632     0.36373394
 H     11   9   7     1.091215693447   119.60040153   180.40136727
 C      1   2   3     1.537529289285   110.23828604   273.41655024
 C      1   2   3     1.546248044287   114.02588407   148.44760494
 H      1   2   3     1.104312290687   106.65826849    30.30135556
 S     14   1   2     1.852267552634   108.85927240   200.89062740
 H     14   1   2     1.098262373248   112.46056872    81.59374310
 H     14   1   2     1.098495621113   111.66439314   318.95319636
 H     13   1   2     1.099381593474   110.65946284   178.07469742
 H     13   1   2     1.097836132952   110.84654259    57.59213187
 H     13   1   2     1.100114843487   110.17216535   298.16389748
 C      6   5   3     1.507266867195   117.60500060   205.53493746
 C      6   5   3     1.344901543372   121.51371826    26.35210189
 H     23   6   5     1.090081894425   122.10061901     2.21643577
 H     23   6   5     1.090604727474   121.04878653   180.91554600
 S     16  14   1     2.053921959221   110.58705965   240.45429863
 S     26  16  14     2.120023145165   108.53510373   250.20136715
 S     27  26  16     2.093498032423   112.45276724   116.52906348
 S     28  27  26     2.062569019382   108.81522754    93.74669653
 C     29  28  27     1.850224429428   104.23847951    85.99361837
 C     30  29  28     1.542386573968   109.80860719   177.95343219
 H     30  29  28     1.097454911195   107.78929992    56.62935325
 H     30  29  28     1.098552276046   107.44116537   298.94419324
 C     31  30  29     1.528692947794   112.83605567   190.86650341
 C     31  30  29     1.540710344556   111.12893497    67.12428258
 H     31  30  29     1.104390296436   107.69590056   308.82124451
 H     35  31  30     1.097900613459   110.68674683   181.47829821
 H     35  31  30     1.100051156020   110.09902895    62.27435934
 H     35  31  30     1.098938039682   111.36555417   302.25981821
 C     34  31  30     1.399037653550   122.11558040   334.09888192
 C     40  34  31     1.398680680960   120.26170238   183.18884392
 C     41  40  34     1.390398898317   120.67465662     0.89817377
 C     42  41  40     1.409256913172   120.87144784     0.10206754
 C     34  31  30     1.406902784660   119.47380085   157.66917189
 H     40  34  31     1.090340916281   120.37021732     3.75958509
 H     41  40  34     1.091140856928   119.62970195   181.53704639
 H     42  41  40     1.090145183871   119.65988371   181.87579112
 C     43  42  41     1.492437240155   120.66875918   178.90575168
 H     44  34  31     1.092069215797   118.20969307   356.62677373
 C     48  43  42     1.507609556058   117.37582119   154.68449829
 C     48  43  42     1.344644144916   121.72221183   333.54423400
 H     51  48  43     1.089857193009   122.22320735   357.82665181
 H     51  48  43     1.090527523433   120.90169071   179.09201830
 H     22   6   5     1.100517584365   111.31277054    52.46288425
 H     22   6   5     1.101441522390   111.42609855   293.25895941
 H     22   6   5     1.097029171180   110.72331806   173.54805435
 H     50  48  43     1.100589966851   111.27778886   307.12913428
 H     50  48  43     1.097037129623   110.87454269   185.92869990
 H     50  48  43     1.101563145613   111.28682464    66.18511847

---------------------------
INTERNAL COORDINATES (A.U.)
---------------------------
 C      0   0   0     0.000000000000     0.00000000     0.00000000
 C      1   0   0     2.881201246355     0.00000000     0.00000000
 C      2   1   0     2.650939815119   119.65844446     0.00000000
 H      3   2   1     2.064621035351   118.57707843   354.75318466
 C      3   2   1     2.664693489042   122.51925456   175.84606235
 C      5   3   2     2.820987100878   122.15504854   181.90586059
 C      5   3   2     2.660129335248   117.30237649     2.11497881
 H      7   5   3     2.059282880075   119.91712313   179.16961359
 C      7   5   3     2.635433643505   120.89515979   358.23463935
 H      9   7   5     2.061959946266   119.60446656   180.52467662
 C      9   7   5     2.637455663591   120.65968632     0.36373394
 H     11   9   7     2.062098813651   119.60040153   180.40136727
 C      1   2   3     2.905509279630   110.23828604   273.41655024
 C      1   2   3     2.921985338814   114.02588407   148.44760494
 H      1   2   3     2.086847795722   106.65826849    30.30135556
 S     14   1   2     3.500278401227   108.85927240   200.89062740
 H     14   1   2     2.075415108630   112.46056872    81.59374310
 H     14   1   2     2.075855883215   111.66439314   318.95319636
 H     13   1   2     2.077530128340   110.65946284   178.07469742
 H     13   1   2     2.074609631203   110.84654259    57.59213187
 H     13   1   2     2.078915770053   110.17216535   298.16389748
 C      6   5   3     2.848321589732   117.60500060   205.53493746
 C      6   5   3     2.541495594061   121.51371826    26.35210189
 H     23   6   5     2.059956244009   122.10061901     2.21643577
 H     23   6   5     2.060944255286   121.04878653   180.91554600
 S     16  14   1     3.881350003374   110.58705965   240.45429863
 S     26  16  14     4.006263141936   108.53510373   250.20136715
 S     27  26  16     3.956137943182   112.45276724   116.52906348
 S     28  27  26     3.897690578942   108.81522754    93.74669653
 C     29  28  27     3.496417457911   104.23847951    85.99361837
 C     30  29  28     2.914688217437   109.80860719   177.95343219
 H     30  29  28     2.073889226485   107.78929992    56.62935325
 H     30  29  28     2.075962945523   107.44116537   298.94419324
 C     31  30  29     2.888811014187   112.83605567   190.86650341
 C     31  30  29     2.911520602910   111.12893497    67.12428258
 H     31  30  29     2.086995205223   107.69590056   308.82124451
 H     35  31  30     2.074731481702   110.68674683   181.47829821
 H     35  31  30     2.078795418181   110.09902895    62.27435934
 H     35  31  30     2.076691933147   111.36555417   302.25981821
 C     34  31  30     2.643798016254   122.11558040   334.09888192
 C     40  34  31     2.643123435820   120.26170238   183.18884392
 C     41  40  34     2.627473134725   120.67465662     0.89817377
 C     42  41  40     2.663109618230   120.87144784     0.10206754
 C     34  31  30     2.658660960059   119.47380085   157.66917189
 H     40  34  31     2.060445724379   120.37021732     3.75958509
 H     41  40  34     2.061957393126   119.62970195   181.53704639
 H     42  41  40     2.060075843730   119.65988371   181.87579112
 C     43  42  41     2.820297655957   120.66875918   178.90575168
 H     44  34  31     2.063711737142   118.20969307   356.62677373
 C     48  43  42     2.848969177833   117.37582119   154.68449829
 C     48  43  42     2.541009181473   121.72221183   333.54423400
 H     51  48  43     2.059531619871   122.22320735   357.82665181
 H     51  48  43     2.060798360793   120.90169071   179.09201830
 H     22   6   5     2.079676840014   111.31277054    52.46288425
 H     22   6   5     2.081422829846   111.42609855   293.25895941
 H     22   6   5     2.073084694452   110.72331806   173.54805435
 H     50  48  43     2.079813623090   111.27778886   307.12913428
 H     50  48  43     2.073099733730   110.87454269   185.92869990
 H     50  48  43     2.081652664430   111.28682464    66.18511847

---------------------
BASIS SET INFORMATION
---------------------
There are 3 groups of distinct atoms

 Group   1 Type C   : 11s6p2d1f contracted to 5s3p2d1f pattern {62111/411/11/1}
 Group   2 Type H   : 5s1p contracted to 3s1p pattern {311/1}
 Group   3 Type S   : 14s9p3d1f contracted to 5s5p2d1f pattern {73211/51111/21/1}

Atom   0C    basis set group =>   1
Atom   1C    basis set group =>   1
Atom   2C    basis set group =>   1
Atom   3H    basis set group =>   2
Atom   4C    basis set group =>   1
Atom   5C    basis set group =>   1
Atom   6C    basis set group =>   1
Atom   7H    basis set group =>   2
Atom   8C    basis set group =>   1
Atom   9H    basis set group =>   2
Atom  10C    basis set group =>   1
Atom  11H    basis set group =>   2
Atom  12C    basis set group =>   1
Atom  13C    basis set group =>   1
Atom  14H    basis set group =>   2
Atom  15S    basis set group =>   3
Atom  16H    basis set group =>   2
Atom  17H    basis set group =>   2
Atom  18H    basis set group =>   2
Atom  19H    basis set group =>   2
Atom  20H    basis set group =>   2
Atom  21C    basis set group =>   1
Atom  22C    basis set group =>   1
Atom  23H    basis set group =>   2
Atom  24H    basis set group =>   2
Atom  25S    basis set group =>   3
Atom  26S    basis set group =>   3
Atom  27S    basis set group =>   3
Atom  28S    basis set group =>   3
Atom  29C    basis set group =>   1
Atom  30C    basis set group =>   1
Atom  31H    basis set group =>   2
Atom  32H    basis set group =>   2
Atom  33C    basis set group =>   1
Atom  34C    basis set group =>   1
Atom  35H    basis set group =>   2
Atom  36H    basis set group =>   2
Atom  37H    basis set group =>   2
Atom  38H    basis set group =>   2
Atom  39C    basis set group =>   1
Atom  40C    basis set group =>   1
Atom  41C    basis set group =>   1
Atom  42C    basis set group =>   1
Atom  43C    basis set group =>   1
Atom  44H    basis set group =>   2
Atom  45H    basis set group =>   2
Atom  46H    basis set group =>   2
Atom  47C    basis set group =>   1
Atom  48H    basis set group =>   2
Atom  49C    basis set group =>   1
Atom  50C    basis set group =>   1
Atom  51H    basis set group =>   2
Atom  52H    basis set group =>   2
Atom  53H    basis set group =>   2
Atom  54H    basis set group =>   2
Atom  55H    basis set group =>   2
Atom  56H    basis set group =>   2
Atom  57H    basis set group =>   2
Atom  58H    basis set group =>   2
---------------------------------
AUXILIARY/J BASIS SET INFORMATION
---------------------------------
There are 3 groups of distinct atoms

 Group   1 Type C   : 12s5p4d2f1g contracted to 6s4p3d1f1g pattern {711111/2111/211/2/1}
 Group   2 Type H   : 5s2p1d contracted to 3s1p1d pattern {311/2/1}
 Group   3 Type S   : 14s5p5d2f1g contracted to 8s4p3d1f1g pattern {71111111/2111/311/2/1}

Atom   0C    basis set group =>   1
Atom   1C    basis set group =>   1
Atom   2C    basis set group =>   1
Atom   3H    basis set group =>   2
Atom   4C    basis set group =>   1
Atom   5C    basis set group =>   1
Atom   6C    basis set group =>   1
Atom   7H    basis set group =>   2
Atom   8C    basis set group =>   1
Atom   9H    basis set group =>   2
Atom  10C    basis set group =>   1
Atom  11H    basis set group =>   2
Atom  12C    basis set group =>   1
Atom  13C    basis set group =>   1
Atom  14H    basis set group =>   2
Atom  15S    basis set group =>   3
Atom  16H    basis set group =>   2
Atom  17H    basis set group =>   2
Atom  18H    basis set group =>   2
Atom  19H    basis set group =>   2
Atom  20H    basis set group =>   2
Atom  21C    basis set group =>   1
Atom  22C    basis set group =>   1
Atom  23H    basis set group =>   2
Atom  24H    basis set group =>   2
Atom  25S    basis set group =>   3
Atom  26S    basis set group =>   3
Atom  27S    basis set group =>   3
Atom  28S    basis set group =>   3
Atom  29C    basis set group =>   1
Atom  30C    basis set group =>   1
Atom  31H    basis set group =>   2
Atom  32H    basis set group =>   2
Atom  33C    basis set group =>   1
Atom  34C    basis set group =>   1
Atom  35H    basis set group =>   2
Atom  36H    basis set group =>   2
Atom  37H    basis set group =>   2
Atom  38H    basis set group =>   2
Atom  39C    basis set group =>   1
Atom  40C    basis set group =>   1
Atom  41C    basis set group =>   1
Atom  42C    basis set group =>   1
Atom  43C    basis set group =>   1
Atom  44H    basis set group =>   2
Atom  45H    basis set group =>   2
Atom  46H    basis set group =>   2
Atom  47C    basis set group =>   1
Atom  48H    basis set group =>   2
Atom  49C    basis set group =>   1
Atom  50C    basis set group =>   1
Atom  51H    basis set group =>   2
Atom  52H    basis set group =>   2
Atom  53H    basis set group =>   2
Atom  54H    basis set group =>   2
Atom  55H    basis set group =>   2
Atom  56H    basis set group =>   2
Atom  57H    basis set group =>   2
Atom  58H    basis set group =>   2


           ************************************************************
           *        Program running with 8 parallel MPI-processes     *
           *              working on a common directory               *
           ************************************************************
------------------------------------------------------------------------------
                           ORCA GTO INTEGRAL CALCULATION
                           -- RI-GTO INTEGRALS CHOSEN --
------------------------------------------------------------------------------
------------------------------------------------------------------------------
                   ___                                                        
                  /   \      - P O W E R E D   B Y -                         
                 /     \                                                     
                 |  |  |   _    _      __       _____    __    __             
                 |  |  |  | |  | |    /  \     |  _  \  |  |  /  |          
                  \  \/   | |  | |   /    \    | | | |  |  | /  /          
                 / \  \   | |__| |  /  /\  \   | |_| |  |  |/  /          
                |  |  |   |  __  | /  /__\  \  |    /   |      \           
                |  |  |   | |  | | |   __   |  |    \   |  |\   \          
                \     /   | |  | | |  |  |  |  | |\  \  |  | \   \       
                 \___/    |_|  |_| |__|  |__|  |_| \__\ |__|  \__/        
                                                                              
                      - O R C A' S   B I G   F R I E N D -                    
                                      &                                       
                       - I N T E G R A L  F E E D E R -                       
                                                                              
 v1 FN, 2020, v2 2021                                                         
------------------------------------------------------------------------------


Reading SHARK input file ../Sulphur/SI5_0.5.SHARKINP.tmp ... ok
----------------------
SHARK INTEGRAL PACKAGE
----------------------

Number of atoms                             ...     59
Number of basis functions                   ...   1109
Number of shells                            ...    449
Maximum angular momentum                    ...      3
Integral batch strategy                     ... SHARK/LIBINT Hybrid
RI-J (if used) integral strategy            ... SPLIT-RIJ (Revised 2003 algorithm where possible)
Printlevel                                  ...      1
Contraction scheme used                     ... SEGMENTED contraction
Coulomb Range Separation                    ... NOT USED
Exchange Range Separation                   ... NOT USED
Finite Nucleus Model                        ... NOT USED
Auxiliary Coulomb fitting basis             ... AVAILABLE
   # of basis functions in Aux-J            ...   1761
   # of shells in Aux-J                     ...    595
   Maximum angular momentum in Aux-J        ...      4
Auxiliary J/K fitting basis                 ... NOT available
Auxiliary Correlation fitting basis         ... NOT available
Auxiliary 'external' fitting basis          ... NOT available
Integral threshold                          ...     2.500000e-11
Primitive cut-off                           ...     2.500000e-12
Primitive pair pre-selection threshold      ...     2.500000e-12

Calculating pre-screening integrals         ... done (  0.3 sec) Dimension = 449
Organizing shell pair data                  ... done (  0.9 sec)
Shell pair information
Total number of shell pairs                 ...    101025
Shell pairs after pre-screening             ...     41110
Total number of primitive shell pairs       ...    317208
Primitive shell pairs kept                  ...     86239
          la=0 lb=0:  10977 shell pairs
          la=1 lb=0:  12312 shell pairs
          la=1 lb=1:   3574 shell pairs
          la=2 lb=0:   5514 shell pairs
          la=2 lb=1:   3105 shell pairs
          la=2 lb=2:    722 shell pairs
          la=3 lb=0:   2608 shell pairs
          la=3 lb=1:   1467 shell pairs
          la=3 lb=2:    660 shell pairs
          la=3 lb=3:    171 shell pairs

Calculating one electron integrals          ... done (  0.5 sec)
Calculating RI/J V-Matrix + Cholesky decomp.... done (  3.7 sec)
Calculating Nuclear repulsion               ... done (  0.0 sec) ENN=   3094.011331383065 Eh

SHARK setup successfully completed in   6.7 seconds

Maximum memory used throughout the entire GTOINT-calculation: 67.5 MB
--------------------------------------------------------------------------
A system call failed during shared memory initialization that should
not have.  It is likely that your MPI job will now either abort or
experience performance degradation.

  Local host:  UOBVD7HP7.local
  System call: unlink(2) /var/folders/hp/h3x3qmks4kn3qdcv21z5pm140000gq/T//ompi.UOBVD7HP7.503/pid.54350/1/vader_segment.UOBVD7HP7.503.91c0001.2
  Error:       No such file or directory (errno 2)
--------------------------------------------------------------------------
[UOBVD7HP7.local:54350] 2 more processes have sent help message help-opal-shmem-mmap.txt / sys call fail
[UOBVD7HP7.local:54350] Set MCA parameter "orte_base_help_aggregate" to 0 to see all help / error messages


           ************************************************************
           *        Program running with 8 parallel MPI-processes     *
           *              working on a common directory               *
           ************************************************************
-------------------------------------------------------------------------------
                                 ORCA SCF
-------------------------------------------------------------------------------

------------
SCF SETTINGS
------------
Hamiltonian:
 Density Functional     Method          .... DFT(GTOs)
 Exchange Functional    Exchange        .... B88
   X-Alpha parameter    XAlpha          ....  0.666667
   Becke's b parameter  XBeta           ....  0.004200
 Correlation Functional Correlation     .... P86
 LDA part of GGA corr.  LDAOpt          .... PW91-LDA
 Gradients option       PostSCFGGA      .... off
   Density functional embedding theory  .... OFF
   NL short-range parameter             ....  4.400000
 RI-approximation to the Coulomb term is turned on
   Number of AuxJ basis functions       .... 1761


General Settings:
 Integral files         IntName         .... ../Sulphur/SI5_0.5
 Hartree-Fock type      HFTyp           .... RHF
 Total Charge           Charge          ....    0
 Multiplicity           Mult            ....    1
 Number of Electrons    NEL             ....  254
 Basis Dimension        Dim             .... 1109
 Nuclear Repulsion      ENuc            ....   3094.0113313831 Eh

Convergence Acceleration:
 DIIS                   CNVDIIS         .... on
   Start iteration      DIISMaxIt       ....    12
   Startup error        DIISStart       ....  0.200000
   # of expansion vecs  DIISMaxEq       ....     5
   Bias factor          DIISBfac        ....   1.050
   Max. coefficient     DIISMaxC        ....  10.000
 Trust-Rad. Augm. Hess. CNVTRAH         .... auto
   Auto Start mean grad. ratio tolernc. ....  1.125000
   Auto Start start iteration           ....    20
   Auto Start num. interpolation iter.  ....    10
   Max. Number of Micro iterations      ....    16
   Max. Number of Macro iterations      .... Maxiter - #DIIS iter
   Number of Davidson start vectors     ....     2
   Converg. threshold I  (grad. norm)   ....   1.000e-05
   Converg. threshold II (energy diff.) ....   1.000e-08
   Grad. Scal. Fac. for Micro threshold ....   0.100
   Minimum threshold for Micro iter.    ....   0.010
   NR start threshold (gradient norm)   ....   0.001
   Initial trust radius                 ....   0.400
   Minimum AH scaling param. (alpha)    ....   1.000
   Maximum AH scaling param. (alpha)    .... 1000.000
   Orbital update algorithm             .... Taylor
   White noise on init. David. guess    .... on
   Maximum white noise                  ....   0.010
   Quad. conv. algorithm                .... NR
 SOSCF                  CNVSOSCF        .... on
   Start iteration      SOSCFMaxIt      ....   150
   Startup grad/error   SOSCFStart      ....  0.003300
 Level Shifting         CNVShift        .... on
   Level shift para.    LevelShift      ....    0.2500
   Turn off err/grad.   ShiftErr        ....    0.0010
 Zerner damping         CNVZerner       .... off
 Static damping         CNVDamp         .... on
   Fraction old density DampFac         ....    0.7000
   Max. Damping (<1)    DampMax         ....    0.9800
   Min. Damping (>=0)   DampMin         ....    0.0000
   Turn off err/grad.   DampErr         ....    0.1000
 Fernandez-Rico         CNVRico         .... off

SCF Procedure:
 Maximum # iterations   MaxIter         ....   125
 SCF integral mode      SCFMode         .... Direct
   Integral package                     .... SHARK and LIBINT hybrid scheme
 Reset frequency        DirectResetFreq ....    20
 Integral Threshold     Thresh          ....  2.500e-11 Eh
 Primitive CutOff       TCut            ....  2.500e-12 Eh

Convergence Tolerance:
 Convergence Check Mode ConvCheckMode   .... Total+1el-Energy
 Convergence forced     ConvForced      .... 0
 Energy Change          TolE            ....  1.000e-08 Eh
 1-El. energy change                    ....  1.000e-05 Eh
 Orbital Gradient       TolG            ....  1.000e-05
 Orbital Rotation angle TolX            ....  1.000e-05
 DIIS Error             TolErr          ....  5.000e-07


Diagonalization of the overlap matrix:
Smallest eigenvalue                        ... 7.078e-06
Time for diagonalization                   ...   50.827 sec
Threshold for overlap eigenvalues          ... 1.000e-08
Number of eigenvalues below threshold      ... 0
Time for construction of square roots      ...    9.002 sec
Total time needed                          ...   59.882 sec

Time for model grid setup =    4.612 sec

------------------------------
INITIAL GUESS: MODEL POTENTIAL
------------------------------
Loading Hartree-Fock densities                     ... done
Calculating cut-offs                               ... done
Initializing the effective Hamiltonian             ... done
Setting up the integral package (SHARK)            ... done
Starting the Coulomb interaction                   ... done (   2.5 sec)
Reading the grid                                   ... done
Mapping shells                                     ... done
Starting the XC term evaluation                    ... done (   0.6 sec)
  promolecular density results
     # of electrons  =    253.974394632
     EX              =   -257.346188946
     EC              =     -9.800157742
     EX+EC           =   -267.146346688
Transforming the Hamiltonian                       ... done (   8.0 sec)
Diagonalizing the Hamiltonian                      ... done (  55.7 sec)
Back transforming the eigenvectors                 ... done (   9.7 sec)
Now organizing SCF variables                       ... done
                      ------------------
                      INITIAL GUESS DONE (  82.1 sec)
                      ------------------
-------------------
DFT GRID GENERATION
-------------------

General Integration Accuracy     IntAcc      ... 4.388
Radial Grid Type                 RadialGrid  ... OptM3 with GC (2021)
Angular Grid (max. ang.)         AngularGrid ... 4 (Lebedev-302)
Angular grid pruning method      GridPruning ... 4 (adaptive)
Weight generation scheme         WeightScheme... Becke
Basis function cutoff            BFCut       ... 1.0000e-11
Integration weight cutoff        WCut        ... 1.0000e-14
Angular grids for H and He will be reduced by one unit
Partially contracted basis set               ... off
Rotationally invariant grid construction     ... off

Total number of grid points                  ...   275603
Total number of batches                      ...     4339
Average number of points per batch           ...       63
Average number of grid points per atom       ...     4671
Time for grid setup =   13.678 sec

--------------
SCF ITERATIONS
--------------
ITER       Energy         Delta-E        Max-DP      RMS-DP      [F,P]     Damp
               ***  Starting incremental Fock matrix formation  ***
  0  -2923.5960290314   0.000000000000 0.03512718  0.00048762  0.1734287 0.7000
  1  -2923.8885150757  -0.292486044237 0.02345422  0.00036668  0.0811341 0.7000
                               ***Turning on DIIS***
  2  -2923.9948742031  -0.106359127434 0.04476302  0.00065068  0.0246616 0.0000
  3  -2924.1380688323  -0.143194629229 0.01833352  0.00028159  0.0520424 0.0000
  4  -2924.1917923105  -0.053723478121 0.01298606  0.00010792  0.0113828 0.0000
  5  -2924.1947628341  -0.002970523664 0.00384223  0.00004748  0.0042158 0.0000
                      *** Initiating the SOSCF procedure ***
                           *** Shutting down DIIS ***
                      *** Re-Reading the Fockian *** 
                      *** Removing any level shift *** 
ITER      Energy       Delta-E        Grad      Rot      Max-DP    RMS-DP
  6  -2924.19506194  -0.0002991108  0.000188  0.000188  0.002867  0.000036
               *** Restarting incremental Fock matrix formation ***
  7  -2924.19507561  -0.0000136630  0.000268  0.001416  0.001731  0.000013
  8  -2924.19504919   0.0000264157  0.000818  0.001260  0.000730  0.000008
  9  -2924.19508115  -0.0000319582  0.000137  0.000449  0.001210  0.000006
 10  -2924.19507777   0.0000033814  0.000198  0.000278  0.000823  0.000004
 11  -2924.19508229  -0.0000045173  0.000018  0.000104  0.000102  0.000001
 12  -2924.19508210   0.0000001815  0.000047  0.000088  0.000075  0.000001
 13  -2924.19508234  -0.0000002323  0.000007  0.000036  0.000061  0.000001
 14  -2924.19508232   0.0000000214  0.000015  0.000026  0.000038  0.000000
                  ***Gradient check signals convergence***
              ***Rediagonalizing the Fockian in SOSCF/NRSCF***

               *****************************************************
               *                     SUCCESS                       *
               *           SCF CONVERGED AFTER  15 CYCLES          *
               *****************************************************


----------------
TOTAL SCF ENERGY
----------------

Total Energy       :        -2924.43575237 Eh          -79577.94249 eV
SCF Energy         :        -2924.19508232 Eh          -79571.39352 eV
External Potential :           -0.24067005 Eh              -6.54896 eV

Components:
Nuclear Repulsion  :         3094.01133138 Eh           84192.32858 eV
External Potential :           -0.24067005 Eh              -6.54896 eV
Electronic Energy  :        -6018.20641370 Eh         -163763.72210 eV
One Electron Energy:       -10168.71929214 Eh         -276704.91935 eV
Two Electron Energy:         4150.51287843 Eh          112941.19724 eV

Virial components:
Potential Energy   :        -5839.55885923 Eh         -158902.47501 eV
Kinetic Energy     :         2915.36377691 Eh           79331.08148 eV
Virial Ratio       :            2.00302923


DFT components:
N(Alpha)           :      126.999929092196 electrons
N(Beta)            :      126.999929092196 electrons
N(Total)           :      253.999858184392 electrons
E(X)               :     -260.430367811744 Eh       
E(C)               :       -9.771459070145 Eh       
E(XC)              :     -270.201826881889 Eh       
DFET-embed. en.    :        0.000000000000 Eh       

---------------
SCF CONVERGENCE
---------------

  Last Energy change         ...   -6.3374e-09  Tolerance :   1.0000e-08
  Last MAX-Density change    ...    6.5399e-05  Tolerance :   1.0000e-07
  Last RMS-Density change    ...    5.5305e-07  Tolerance :   5.0000e-09
  Last Orbital Gradient      ...    1.6719e-06  Tolerance :   1.0000e-05
  Last Orbital Rotation      ...    6.2576e-06  Tolerance :   1.0000e-05

             **** THE GBW FILE WAS UPDATED (../Sulphur/SI5_0.5.gbw) ****
             **** DENSITY ../Sulphur/SI5_0.5.scfp WAS UPDATED ****
             **** ENERGY FILE WAS UPDATED (../Sulphur/SI5_0.5.en.tmp) ****
             **** THE GBW FILE WAS UPDATED (../Sulphur/SI5_0.5.gbw) ****
             **** DENSITY ../Sulphur/SI5_0.5.scfp WAS UPDATED ****
----------------
ORBITAL ENERGIES
----------------

  NO   OCC          E(Eh)            E(eV) 
   0   2.0000     -88.139698     -2398.4031 
   1   2.0000     -88.138605     -2398.3734 
   2   2.0000     -88.131386     -2398.1769 
   3   2.0000     -88.124081     -2397.9781 
   4   2.0000     -88.121635     -2397.9116 
   5   2.0000      -9.937780      -270.4208 
   6   2.0000      -9.936370      -270.3824 
   7   2.0000      -9.928013      -270.1550 
   8   2.0000      -9.925443      -270.0850 
   9   2.0000      -9.918767      -269.9034 
  10   2.0000      -9.918720      -269.9021 
  11   2.0000      -9.918666      -269.9006 
  12   2.0000      -9.917960      -269.8814 
  13   2.0000      -9.917918      -269.8803 
  14   2.0000      -9.917679      -269.8738 
  15   2.0000      -9.907060      -269.5848 
  16   2.0000      -9.906779      -269.5771 
  17   2.0000      -9.906087      -269.5583 
  18   2.0000      -9.905997      -269.5559 
  19   2.0000      -9.905835      -269.5515 
  20   2.0000      -9.905335      -269.5379 
  21   2.0000      -9.904608      -269.5181 
  22   2.0000      -9.903619      -269.4912 
  23   2.0000      -9.899044      -269.3667 
  24   2.0000      -9.898986      -269.3651 
  25   2.0000      -9.896038      -269.2849 
  26   2.0000      -9.894395      -269.2402 
  27   2.0000      -9.892262      -269.1821 
  28   2.0000      -9.892125      -269.1784 
  29   2.0000      -7.715920      -209.9609 
  30   2.0000      -7.714883      -209.9326 
  31   2.0000      -7.708407      -209.7564 
  32   2.0000      -7.702364      -209.5920 
  33   2.0000      -7.700131      -209.5312 
  34   2.0000      -5.738157      -156.1432 
  35   2.0000      -5.737134      -156.1154 
  36   2.0000      -5.734171      -156.0347 
  37   2.0000      -5.733257      -156.0099 
  38   2.0000      -5.730839      -155.9440 
  39   2.0000      -5.727342      -155.8489 
  40   2.0000      -5.726397      -155.8232 
  41   2.0000      -5.726156      -155.8166 
  42   2.0000      -5.724402      -155.7689 
  43   2.0000      -5.722026      -155.7042 
  44   2.0000      -5.719897      -155.6463 
  45   2.0000      -5.719837      -155.6447 
  46   2.0000      -5.717926      -155.5927 
  47   2.0000      -5.714075      -155.4879 
  48   2.0000      -5.711680      -155.4227 
  49   2.0000      -0.797209       -21.6931 
  50   2.0000      -0.796978       -21.6869 
  51   2.0000      -0.771618       -20.9968 
  52   2.0000      -0.765170       -20.8213 
  53   2.0000      -0.751632       -20.4530 
  54   2.0000      -0.740441       -20.1484 
  55   2.0000      -0.731574       -19.9071 
  56   2.0000      -0.721331       -19.6284 
  57   2.0000      -0.692999       -18.8575 
  58   2.0000      -0.678139       -18.4531 
  59   2.0000      -0.672937       -18.3116 
  60   2.0000      -0.668430       -18.1889 
  61   2.0000      -0.661063       -17.9884 
  62   2.0000      -0.645008       -17.5516 
  63   2.0000      -0.627839       -17.0844 
  64   2.0000      -0.627621       -17.0784 
  65   2.0000      -0.617216       -16.7953 
  66   2.0000      -0.584367       -15.9014 
  67   2.0000      -0.572198       -15.5703 
  68   2.0000      -0.568467       -15.4688 
  69   2.0000      -0.558985       -15.2108 
  70   2.0000      -0.545701       -14.8493 
  71   2.0000      -0.530850       -14.4452 
  72   2.0000      -0.526703       -14.3323 
  73   2.0000      -0.517256       -14.0753 
  74   2.0000      -0.484074       -13.1723 
  75   2.0000      -0.483788       -13.1645 
  76   2.0000      -0.465102       -12.6561 
  77   2.0000      -0.464461       -12.6386 
  78   2.0000      -0.437139       -11.8952 
  79   2.0000      -0.434976       -11.8363 
  80   2.0000      -0.422368       -11.4932 
  81   2.0000      -0.419284       -11.4093 
  82   2.0000      -0.418918       -11.3993 
  83   2.0000      -0.416793       -11.3415 
  84   2.0000      -0.415875       -11.3165 
  85   2.0000      -0.415322       -11.3015 
  86   2.0000      -0.394669       -10.7395 
  87   2.0000      -0.393169       -10.6987 
  88   2.0000      -0.390642       -10.6299 
  89   2.0000      -0.386279       -10.5112 
  90   2.0000      -0.385173       -10.4811 
  91   2.0000      -0.378475       -10.2988 
  92   2.0000      -0.375693       -10.2231 
  93   2.0000      -0.370422       -10.0797 
  94   2.0000      -0.366409        -9.9705 
  95   2.0000      -0.365744        -9.9524 
  96   2.0000      -0.363012        -9.8781 
  97   2.0000      -0.350567        -9.5394 
  98   2.0000      -0.346918        -9.4401 
  99   2.0000      -0.343726        -9.3533 
 100   2.0000      -0.342280        -9.3139 
 101   2.0000      -0.338301        -9.2056 
 102   2.0000      -0.335723        -9.1355 
 103   2.0000      -0.334145        -9.0925 
 104   2.0000      -0.332129        -9.0377 
 105   2.0000      -0.326281        -8.8786 
 106   2.0000      -0.324266        -8.8237 
 107   2.0000      -0.322208        -8.7677 
 108   2.0000      -0.319795        -8.7021 
 109   2.0000      -0.315669        -8.5898 
 110   2.0000      -0.310727        -8.4553 
 111   2.0000      -0.304100        -8.2750 
 112   2.0000      -0.300916        -8.1884 
 113   2.0000      -0.297503        -8.0955 
 114   2.0000      -0.295217        -8.0333 
 115   2.0000      -0.293422        -7.9844 
 116   2.0000      -0.261878        -7.1261 
 117   2.0000      -0.261349        -7.1117 
 118   2.0000      -0.251451        -6.8423 
 119   2.0000      -0.243018        -6.6128 
 120   2.0000      -0.232905        -6.3377 
 121   2.0000      -0.231467        -6.2985 
 122   2.0000      -0.220080        -5.9887 
 123   2.0000      -0.219204        -5.9649 
 124   2.0000      -0.212567        -5.7842 
 125   2.0000      -0.211872        -5.7653 
 126   2.0000      -0.207364        -5.6427 
 127   0.0000      -0.103986        -2.8296 
 128   0.0000      -0.072738        -1.9793 
 129   0.0000      -0.072477        -1.9722 
 130   0.0000      -0.069099        -1.8803 
 131   0.0000      -0.060026        -1.6334 
 132   0.0000      -0.052781        -1.4362 
 133   0.0000      -0.049832        -1.3560 
 134   0.0000      -0.048345        -1.3155 
 135   0.0000      -0.011496        -0.3128 
 136   0.0000      -0.007346        -0.1999 
 137   0.0000      -0.005607        -0.1526 
 138   0.0000      -0.004309        -0.1173 
 139   0.0000       0.020265         0.5514 
 140   0.0000       0.022965         0.6249 
 141   0.0000       0.032534         0.8853 
 142   0.0000       0.035884         0.9764 
 143   0.0000       0.036203         0.9851 
 144   0.0000       0.040039         1.0895 
 145   0.0000       0.051392         1.3985 
 146   0.0000       0.052638         1.4324 
 147   0.0000       0.057415         1.5623 
 148   0.0000       0.057606         1.5675 
 149   0.0000       0.061885         1.6840 
 150   0.0000       0.064060         1.7432 
 151   0.0000       0.067100         1.8259 
 152   0.0000       0.068315         1.8589 
 153   0.0000       0.074800         2.0354 
 154   0.0000       0.076685         2.0867 
 155   0.0000       0.080583         2.1928 
 156   0.0000       0.081473         2.2170 
 157   0.0000       0.084183         2.2907 
 158   0.0000       0.086347         2.3496 
 159   0.0000       0.090839         2.4719 
 160   0.0000       0.091878         2.5001 
 161   0.0000       0.099814         2.7161 
 162   0.0000       0.100792         2.7427 
 163   0.0000       0.103192         2.8080 
 164   0.0000       0.104458         2.8424 
 165   0.0000       0.106842         2.9073 
 166   0.0000       0.108170         2.9434 
 167   0.0000       0.110405         3.0043 
 168   0.0000       0.110876         3.0171 
 169   0.0000       0.114642         3.1196 
 170   0.0000       0.118761         3.2317 
 171   0.0000       0.122411         3.3310 
 172   0.0000       0.123710         3.3663 
 173   0.0000       0.125122         3.4047 
 174   0.0000       0.126462         3.4412 
 175   0.0000       0.129112         3.5133 
[...]
104:   1155.48   0.000272    1.37  0.000073  ( 0.005611 -0.001709 -0.006247)
105:   1167.48   0.000073    0.37  0.000019  (-0.003213  0.003006  0.000194)
106:   1168.02   0.000241    1.22  0.000064  (-0.005200  0.004810 -0.003784)
107:   1179.67   0.004653   23.51  0.001231  ( 0.023747 -0.013698  0.021894)
108:   1188.31   0.003386   17.11  0.000889  ( 0.015164 -0.015851  0.020201)
109:   1197.46   0.000328    1.66  0.000085  ( 0.007167 -0.005345 -0.002343)
110:   1200.84   0.000165    0.83  0.000043  ( 0.002741 -0.005046  0.003150)
111:   1261.94   0.000432    2.18  0.000107  ( 0.003435 -0.006178  0.007536)
112:   1268.03   0.001936    9.78  0.000476  ( 0.017426 -0.010658  0.007691)
113:   1275.22   0.001411    7.13  0.000345  ( 0.010917 -0.014677 -0.003276)
114:   1277.19   0.004447   22.47  0.001087  (-0.021439  0.019966 -0.015111)
115:   1286.80   0.000271    1.37  0.000066  (-0.004188  0.004144  0.005568)
116:   1293.35   0.002057   10.40  0.000496  (-0.016627  0.012482 -0.008004)
117:   1311.61   0.000134    0.68  0.000032  (-0.001921  0.000641 -0.005267)
118:   1312.15   0.000170    0.86  0.000040  ( 0.003775 -0.003881 -0.003330)
119:   1331.50   0.000321    1.62  0.000075  (-0.000075 -0.001002 -0.008614)
120:   1333.01   0.000896    4.53  0.000210  ( 0.011075 -0.005881  0.007242)
121:   1352.28   0.002370   11.97  0.000547  ( 0.005378  0.012470 -0.019037)
122:   1357.96   0.002339   11.82  0.000537  (-0.023095 -0.000019 -0.002016)
123:   1358.25   0.001652    8.35  0.000380  ( 0.017193 -0.002451  0.008825)
124:   1359.05   0.001506    7.61  0.000346  ( 0.001651 -0.012308 -0.013840)
125:   1389.50   0.000431    2.18  0.000097  ( 0.005847 -0.002334 -0.007567)
126:   1393.28   0.000367    1.85  0.000082  (-0.006204 -0.006571 -0.000700)
127:   1409.58   0.001057    5.34  0.000234  ( 0.014784 -0.001122 -0.003756)
128:   1411.79   0.000684    3.45  0.000151  (-0.000166  0.011844  0.003283)
129:   1416.43   0.001011    5.11  0.000223  ( 0.012599  0.002011  0.007746)
130:   1422.28   0.001343    6.79  0.000295  (-0.009629  0.012834 -0.006112)
131:   1431.75   0.001728    8.73  0.000377  (-0.007139  0.000397  0.018042)
132:   1432.19   0.001533    7.75  0.000334  (-0.011674 -0.014059  0.000432)
133:   1443.80   0.002627   13.28  0.000568  (-0.019915  0.009561  0.008932)
134:   1446.00   0.000289    1.46  0.000062  (-0.001957  0.007373  0.002045)
135:   1446.65   0.004406   22.27  0.000951  (-0.022610  0.016935 -0.012351)
136:   1447.34   0.003410   17.23  0.000735  ( 0.007399 -0.024410  0.009195)
137:   1448.39   0.002911   14.71  0.000627  (-0.000322 -0.024869 -0.002944)
138:   1448.99   0.000734    3.71  0.000158  ( 0.008809 -0.006855 -0.005782)
139:   1473.26   0.003397   17.17  0.000720  ( 0.018259 -0.016582  0.010545)
140:   1476.13   0.002784   14.07  0.000588  (-0.012129  0.015703 -0.013957)
141:   1570.92   0.003088   15.61  0.000613  ( 0.015711  0.008685  0.017065)
142:   1571.75   0.006277   31.72  0.001246  (-0.007472  0.020854 -0.027487)
143:   1583.42   0.003758   18.99  0.000741  (-0.020685  0.012782 -0.012225)
144:   1584.08   0.003787   19.14  0.000746  ( 0.016234 -0.019553  0.010008)
145:   1635.09   0.003055   15.44  0.000583  ( 0.010008 -0.003056  0.021761)
146:   1635.83   0.003357   16.96  0.000640  (-0.005837 -0.024444  0.002962)
147:   2936.38   0.001473    7.44  0.000157  (-0.000331  0.005184  0.011382)
148:   2938.25   0.001463    7.39  0.000155  (-0.002567  0.008040  0.009174)
149:   2957.88   0.003409   17.23  0.000360  (-0.004951  0.004858  0.017650)
150:   2959.08   0.004034   20.39  0.000425  ( 0.018054  0.004991  0.008635)
151:   2963.44   0.003696   18.68  0.000389  ( 0.016236  0.004210 -0.010387)
152:   2965.88   0.003539   17.89  0.000372  ( 0.010014  0.016369 -0.002044)
153:   2984.30   0.003149   15.91  0.000329  ( 0.001377 -0.007848  0.016303)
154:   2986.69   0.001519    7.68  0.000159  (-0.009989 -0.005842 -0.004977)
155:   3008.03   0.002628   13.28  0.000273  (-0.007813 -0.014542 -0.000364)
156:   3009.34   0.002508   12.67  0.000260  (-0.009023  0.001346  0.013297)
157:   3033.04   0.003704   18.72  0.000381  (-0.009691 -0.009130 -0.014276)
158:   3036.04   0.003833   19.37  0.000394  ( 0.002476  0.002473 -0.019539)
159:   3044.89   0.001352    6.83  0.000139  (-0.000824 -0.006697  0.009648)
160:   3045.44   0.001145    5.79  0.000117  ( 0.006070  0.006484  0.006203)
161:   3047.24   0.006621   33.46  0.000678  ( 0.015635 -0.017535  0.011228)
162:   3047.75   0.007293   36.86  0.000747  (-0.018947  0.016624 -0.010554)
163:   3050.97   0.005255   26.56  0.000537  (-0.017669  0.014055 -0.005268)
164:   3051.40   0.004747   23.99  0.000485  ( 0.009566 -0.018890  0.006091)
165:   3074.27   0.000990    5.00  0.000101  (-0.001400 -0.009781  0.001695)
166:   3075.92   0.001462    7.39  0.000148  (-0.006758  0.004342 -0.009156)
167:   3085.56   0.001701    8.59  0.000172  (-0.002888 -0.011279 -0.006036)
168:   3091.00   0.001892    9.56  0.000191  ( 0.007643 -0.001001 -0.011471)
169:   3093.46   0.001097    5.55  0.000111  ( 0.007827  0.000676  0.007000)
170:   3096.10   0.000634    3.20  0.000064  ( 0.002370  0.001495 -0.007484)
171:   3108.20   0.002832   14.31  0.000284  ( 0.007478 -0.014835  0.002889)
172:   3111.63   0.002987   15.10  0.000300  (-0.010842  0.011935 -0.006293)
173:   3120.48   0.002459   12.43  0.000246  (-0.007753 -0.000747  0.013612)
174:   3123.09   0.002965   14.98  0.000296  ( 0.010042  0.008177  0.011339)
175:   3155.51   0.003055   15.44  0.000302  (-0.014184  0.008281 -0.005688)
176:   3157.39   0.002432   12.29  0.000240  (-0.010150  0.010502  0.005196)

* The epsilon (eps) is given for a Dirac delta lineshape.
** The dipole moment derivative (T) already includes vibrational overlap.

The first frequency considered to be a vibration is 6
The total number of vibrations considered is 171


--------------------------
THERMOCHEMISTRY AT 298.15K
--------------------------

Temperature         ... 298.15 K
Pressure            ... 1.00 atm
Total Mass          ... 478.80 AMU

Throughout the following assumptions are being made:
  (1) The electronic state is orbitally nondegenerate
  (2) There are no thermally accessible electronically excited states
  (3) Hindered rotations indicated by low frequency modes are not
      treated as such but are treated as vibrations and this may
      cause some error
  (4) All equations used are the standard statistical mechanics
      equations for an ideal gas
  (5) All vibrations are strictly harmonic

freq.      10.44  E(vib)   ...       0.58 
freq.      16.07  E(vib)   ...       0.57 
freq.      16.76  E(vib)   ...       0.57 
freq.      20.28  E(vib)   ...       0.56 
freq.      24.66  E(vib)   ...       0.56 
freq.      27.76  E(vib)   ...       0.55 
freq.      28.91  E(vib)   ...       0.55 
freq.      36.75  E(vib)   ...       0.54 
freq.      39.64  E(vib)   ...       0.54 
freq.      40.94  E(vib)   ...       0.54 
freq.      55.60  E(vib)   ...       0.52 
freq.      68.71  E(vib)   ...       0.50 
freq.      79.31  E(vib)   ...       0.49 
freq.      87.23  E(vib)   ...       0.48 
freq.     108.46  E(vib)   ...       0.45 
freq.     119.90  E(vib)   ...       0.44 
freq.     134.96  E(vib)   ...       0.42 
freq.     141.63  E(vib)   ...       0.41 
freq.     150.09  E(vib)   ...       0.40 
freq.     159.96  E(vib)   ...       0.39 
freq.     175.04  E(vib)   ...       0.38 
freq.     184.68  E(vib)   ...       0.37 
freq.     197.15  E(vib)   ...       0.35 
freq.     202.54  E(vib)   ...       0.35 
freq.     203.15  E(vib)   ...       0.35 
freq.     211.79  E(vib)   ...       0.34 
freq.     224.49  E(vib)   ...       0.33 
freq.     232.01  E(vib)   ...       0.32 
freq.     241.68  E(vib)   ...       0.31 
freq.     243.62  E(vib)   ...       0.31 
freq.     251.70  E(vib)   ...       0.30 
freq.     280.45  E(vib)   ...       0.28 
freq.     280.68  E(vib)   ...       0.28 
freq.     318.25  E(vib)   ...       0.25 
freq.     326.36  E(vib)   ...       0.24 
freq.     346.52  E(vib)   ...       0.23 
freq.     353.82  E(vib)   ...       0.22 
freq.     358.31  E(vib)   ...       0.22 
freq.     382.38  E(vib)   ...       0.21 
freq.     383.91  E(vib)   ...       0.20 
freq.     420.49  E(vib)   ...       0.18 
freq.     428.42  E(vib)   ...       0.18 
freq.     438.08  E(vib)   ...       0.17 
freq.     471.22  E(vib)   ...       0.15 
freq.     473.43  E(vib)   ...       0.15 
freq.     475.44  E(vib)   ...       0.15 
freq.     486.77  E(vib)   ...       0.15 
freq.     503.73  E(vib)   ...       0.14 
freq.     506.52  E(vib)   ...       0.14 
freq.     518.09  E(vib)   ...       0.13 
freq.     518.31  E(vib)   ...       0.13 
freq.     565.10  E(vib)   ...       0.11 
freq.     570.40  E(vib)   ...       0.11 
freq.     605.26  E(vib)   ...       0.10 
freq.     611.63  E(vib)   ...       0.10 
freq.     680.82  E(vib)   ...       0.08 
freq.     684.83  E(vib)   ...       0.07 
freq.     687.62  E(vib)   ...       0.07 
freq.     691.34  E(vib)   ...       0.07 
freq.     712.27  E(vib)   ...       0.07 
freq.     716.67  E(vib)   ...       0.07 
freq.     719.97  E(vib)   ...       0.07 
freq.     740.30  E(vib)   ...       0.06 
freq.     785.04  E(vib)   ...       0.05 
freq.     786.35  E(vib)   ...       0.05 
freq.     794.80  E(vib)   ...       0.05 
freq.     807.74  E(vib)   ...       0.05 
freq.     828.83  E(vib)   ...       0.04 
freq.     845.62  E(vib)   ...       0.04 
freq.     872.93  E(vib)   ...       0.04 
freq.     875.32  E(vib)   ...       0.04 
freq.     877.45  E(vib)   ...       0.04 
freq.     877.58  E(vib)   ...       0.04 
freq.     883.80  E(vib)   ...       0.04 
freq.     884.10  E(vib)   ...       0.04 
freq.     893.60  E(vib)   ...       0.03 
freq.     894.61  E(vib)   ...       0.03 
freq.     926.61  E(vib)   ...       0.03 
freq.     927.07  E(vib)   ...       0.03 
freq.     930.17  E(vib)   ...       0.03 
freq.     931.49  E(vib)   ...       0.03 
freq.     983.34  E(vib)   ...       0.02 
freq.     987.52  E(vib)   ...       0.02 
freq.     988.96  E(vib)   ...       0.02 
freq.     989.81  E(vib)   ...       0.02 
freq.     992.64  E(vib)   ...       0.02 
freq.     994.37  E(vib)   ...       0.02 
freq.    1012.66  E(vib)   ...       0.02 
freq.    1020.31  E(vib)   ...       0.02 
freq.    1030.03  E(vib)   ...       0.02 
freq.    1030.12  E(vib)   ...       0.02 
freq.    1082.93  E(vib)   ...       0.02 
freq.    1083.83  E(vib)   ...       0.02 
freq.    1089.89  E(vib)   ...       0.02 
freq.    1091.98  E(vib)   ...       0.02 
freq.    1104.15  E(vib)   ...       0.02 
freq.    1104.52  E(vib)   ...       0.02 
freq.    1147.31  E(vib)   ...       0.01 
freq.    1155.48  E(vib)   ...       0.01 
freq.    1167.48  E(vib)   ...       0.01 
freq.    1168.02  E(vib)   ...       0.01 
freq.    1179.67  E(vib)   ...       0.01 
freq.    1188.31  E(vib)   ...       0.01 
freq.    1197.46  E(vib)   ...       0.01 
freq.    1200.84  E(vib)   ...       0.01 
freq.    1261.94  E(vib)   ...       0.01 
freq.    1268.03  E(vib)   ...       0.01 
freq.    1275.22  E(vib)   ...       0.01 
freq.    1277.19  E(vib)   ...       0.01 
freq.    1286.80  E(vib)   ...       0.01 
freq.    1293.35  E(vib)   ...       0.01 
freq.    1311.61  E(vib)   ...       0.01 
freq.    1312.15  E(vib)   ...       0.01 
freq.    1331.50  E(vib)   ...       0.01 
freq.    1333.01  E(vib)   ...       0.01 
freq.    1352.28  E(vib)   ...       0.01 
freq.    1357.96  E(vib)   ...       0.01 
freq.    1358.25  E(vib)   ...       0.01 
freq.    1359.05  E(vib)   ...       0.01 
freq.    1389.50  E(vib)   ...       0.00 
freq.    1393.28  E(vib)   ...       0.00 
freq.    1409.58  E(vib)   ...       0.00 
freq.    1411.79  E(vib)   ...       0.00 
freq.    1416.43  E(vib)   ...       0.00 
freq.    1422.28  E(vib)   ...       0.00 
freq.    1431.75  E(vib)   ...       0.00 
freq.    1432.19  E(vib)   ...       0.00 
freq.    1443.80  E(vib)   ...       0.00 
freq.    1446.00  E(vib)   ...       0.00 
freq.    1446.65  E(vib)   ...       0.00 
freq.    1447.34  E(vib)   ...       0.00 
freq.    1448.39  E(vib)   ...       0.00 
freq.    1448.99  E(vib)   ...       0.00 
freq.    1473.26  E(vib)   ...       0.00 
freq.    1476.13  E(vib)   ...       0.00 
freq.    1570.92  E(vib)   ...       0.00 
freq.    1571.75  E(vib)   ...       0.00 
freq.    1583.42  E(vib)   ...       0.00 
freq.    1584.08  E(vib)   ...       0.00 
freq.    1635.09  E(vib)   ...       0.00 
freq.    1635.83  E(vib)   ...       0.00 
freq.    2936.38  E(vib)   ...       0.00 
freq.    2938.25  E(vib)   ...       0.00 
freq.    2957.88  E(vib)   ...       0.00 
freq.    2959.08  E(vib)   ...       0.00 
freq.    2963.44  E(vib)   ...       0.00 
freq.    2965.88  E(vib)   ...       0.00 
freq.    2984.30  E(vib)   ...       0.00 
freq.    2986.69  E(vib)   ...       0.00 
freq.    3008.03  E(vib)   ...       0.00 
freq.    3009.34  E(vib)   ...       0.00 
freq.    3033.04  E(vib)   ...       0.00 
freq.    3036.04  E(vib)   ...       0.00 
freq.    3044.89  E(vib)   ...       0.00 
freq.    3045.44  E(vib)   ...       0.00 
freq.    3047.24  E(vib)   ...       0.00 
freq.    3047.75  E(vib)   ...       0.00 
freq.    3050.97  E(vib)   ...       0.00 
freq.    3051.40  E(vib)   ...       0.00 
freq.    3074.27  E(vib)   ...       0.00 
freq.    3075.92  E(vib)   ...       0.00 
freq.    3085.56  E(vib)   ...       0.00 
freq.    3091.00  E(vib)   ...       0.00 
freq.    3093.46  E(vib)   ...       0.00 
freq.    3096.10  E(vib)   ...       0.00 
freq.    3108.20  E(vib)   ...       0.00 
freq.    3111.63  E(vib)   ...       0.00 
freq.    3120.48  E(vib)   ...       0.00 
freq.    3123.09  E(vib)   ...       0.00 
freq.    3155.51  E(vib)   ...       0.00 
freq.    3157.39  E(vib)   ...       0.00 

------------
INNER ENERGY
------------

The inner energy is: U= E(el) + E(ZPE) + E(vib) + E(rot) + E(trans)
    E(el)   - is the total energy from the electronic structure calculation
              = E(kin-el) + E(nuc-el) + E(el-el) + E(nuc-nuc)
    E(ZPE)  - the the zero temperature vibrational energy from the frequency calculation
    E(vib)  - the the finite temperature correction to E(ZPE) due to population
              of excited vibrational states
    E(rot)  - is the rotational thermal energy
    E(trans)- is the translational thermal energy

Summary of contributions to the inner energy U:
Electronic energy                ...  -2924.32376075 Eh
Zero point energy                ...      0.46443518 Eh     291.44 kcal/mol
Thermal vibrational correction   ...      0.03163945 Eh      19.85 kcal/mol
Thermal rotational correction    ...      0.00141627 Eh       0.89 kcal/mol
Thermal translational correction ...      0.00141627 Eh       0.89 kcal/mol
-----------------------------------------------------------------------
Total thermal energy                  -2923.82485358 Eh


Summary of corrections to the electronic energy:
(perhaps to be used in another calculation)
Total thermal correction                  0.03447199 Eh      21.63 kcal/mol
Non-thermal (ZPE) correction              0.46443518 Eh     291.44 kcal/mol
-----------------------------------------------------------------------
Total correction                          0.49890717 Eh     313.07 kcal/mol


--------
ENTHALPY
--------

The enthalpy is H = U + kB*T
                kB is Boltzmann's constant
Total free energy                 ...  -2923.82485358 Eh 
Thermal Enthalpy correction       ...      0.00094421 Eh       0.59 kcal/mol
-----------------------------------------------------------------------
Total Enthalpy                    ...  -2923.82390937 Eh


Note: Only C1 symmetry has been detected, increase convergence thresholds 
      if your molecule has a higher symmetry. Symmetry factor of 1.0 is   
      used for the rotational entropy correction. 
 

Note: Rotational entropy computed according to Herzberg 
Infrared and Raman Spectra, Chapter V,1, Van Nostrand Reinhold, 1945 
Point Group:  C1, Symmetry Number:   1  
Rotational constants in cm-1:     0.018246     0.000747     0.000741 

Vibrational entropy computed according to the QRRHO of S. Grimme
Chem.Eur.J. 2012 18 9955


-------
ENTROPY
-------

The entropy contributions are T*S = T*(S(el)+S(vib)+S(rot)+S(trans))
     S(el)   - electronic entropy
     S(vib)  - vibrational entropy
     S(rot)  - rotational entropy
     S(trans)- translational entropy
The entropies will be listed as multiplied by the temperature to get
units of energy

Electronic entropy                ...      0.00000000 Eh      0.00 kcal/mol
Vibrational entropy               ...      0.05891069 Eh     36.97 kcal/mol
Rotational entropy                ...      0.01820200 Eh     11.42 kcal/mol
Translational entropy             ...      0.02108929 Eh     13.23 kcal/mol
-----------------------------------------------------------------------
Final entropy term                ...      0.09820199 Eh     61.62 kcal/mol

In case the symmetry of your molecule has not been determined correctly
or in case you have a reason to use a different symmetry number we print 
out the resulting rotational entropy values for sn=1,12 :
 --------------------------------------------------------
|  sn= 1 | S(rot)=       0.01820200 Eh     11.42 kcal/mol|
|  sn= 2 | S(rot)=       0.01754755 Eh     11.01 kcal/mol|
|  sn= 3 | S(rot)=       0.01716471 Eh     10.77 kcal/mol|
|  sn= 4 | S(rot)=       0.01689309 Eh     10.60 kcal/mol|
|  sn= 5 | S(rot)=       0.01668240 Eh     10.47 kcal/mol|
|  sn= 6 | S(rot)=       0.01651026 Eh     10.36 kcal/mol|
|  sn= 7 | S(rot)=       0.01636471 Eh     10.27 kcal/mol|
|  sn= 8 | S(rot)=       0.01623863 Eh     10.19 kcal/mol|
|  sn= 9 | S(rot)=       0.01612743 Eh     10.12 kcal/mol|
|  sn=10 | S(rot)=       0.01602795 Eh     10.06 kcal/mol|
|  sn=11 | S(rot)=       0.01593796 Eh     10.00 kcal/mol|
|  sn=12 | S(rot)=       0.01585580 Eh      9.95 kcal/mol|
 --------------------------------------------------------


-------------------
GIBBS FREE ENERGY
-------------------

The Gibbs free energy is G = H - T*S

Total enthalpy                    ...  -2923.82390937 Eh 
Total entropy correction          ...     -0.09820199 Eh    -61.62 kcal/mol
-----------------------------------------------------------------------
Final Gibbs free energy         ...  -2923.92211136 Eh

For completeness - the Gibbs free energy minus the electronic energy
G-E(el)                           ...      0.40164939 Eh    252.04 kcal/mol

--------------------------------------------------------------------------
A system call failed during shared memory initialization that should
not have.  It is likely that your MPI job will now either abort or
experience performance degradation.

  Local host:  pc-196-203.customer.ask4.lan
  System call: unlink(2) /var/folders/hp/h3x3qmks4kn3qdcv21z5pm140000gq/T//ompi.pc-196-203.503/pid.57553/1/vader_segment.pc-196-203.503.42580001.4
  Error:       No such file or directory (errno 2)
--------------------------------------------------------------------------
[pc-196-203.customer.ask4.lan:57553] 3 more processes have sent help message help-opal-shmem-mmap.txt / sys call fail
[pc-196-203.customer.ask4.lan:57553] Set MCA parameter "orte_base_help_aggregate" to 0 to see all help / error messages

Timings for individual modules:

Sum of individual times         ...    22019.812 sec (= 366.997 min)
GTO integral calculation        ...      132.678 sec (=   2.211 min)   0.6 %
SCF iterations                  ...    12047.979 sec (= 200.800 min)  54.7 %
SCF Gradient evaluation         ...      422.776 sec (=   7.046 min)   1.9 %
Geometry relaxation             ...        4.250 sec (=   0.071 min)   0.0 %
Analytical frequency calculation...     9412.129 sec (= 156.869 min)  42.7 %
                             ****ORCA TERMINATED NORMALLY****
TOTAL RUN TIME: 0 days 6 hours 7 minutes 16 seconds 525 msec
