#Polymer: S

106 atoms
108 bonds
198 angles
262 dihedrals
62 impropers

8 atom types
10 bond types
18 angle types
26 dihedral types
3 improper types

 -50.00000   50.00000 xlo xhi
 -50.00000   50.00000 ylo yhi
 -50.00000   50.00000 zlo zhi

Masses

1 15.999
2 12.011
3 14.007
4 15.999
5 12.011
6 1.008
7 1.008
8 32.060

Pair Coeffs

1 0.210 2.9600000
2 0.070 3.5500000
3 0.170 3.2500000
4 0.140 2.9000000
5 0.066 3.5000000
6 0.000 0.0000000
7 0.030 2.5000000
8 0.355 3.6000000

Bond Coeffs

1 570.0000 1.2290
2 490.0000 1.3350
3 214.0000 1.3270
4 337.0000 1.4490
5 434.0000 1.0100
6 320.0000 1.4100
7 268.0000 1.5290
8 340.0000 1.0900
9 317.0000 1.5220
10 222.0000 1.8100

Angle Coeffs

1 80.000 122.900
2 83.000 123.400
3 50.000 121.900
4 35.000 119.800
5 83.000 116.900
6 80.000 109.700
7 35.000 109.500
8 50.000 109.500
9 37.500 110.700
10 81.000 111.400
11 63.000 111.100
12 50.000 114.700
13 62.000 98.900
14 58.350 112.700
15 60.000 109.500
16 33.000 107.800
17 80.000 120.400
18 38.000 118.400

Dihedral Coeffs

1 0.000 6.089 0.000 0.000
2 0.000 5.124 0.000 0.000
3 0.000 0.462 0.000 0.000
4 6.280 -1.467 2.030 0.000
5 -1.220 -0.126 0.422 0.000
6 4.669 5.124 0.000 0.000
7 0.000 0.000 -0.553 0.000
8 -4.344 -1.714 0.000 0.000
9 0.925 -0.576 0.677 0.000
10 0.000 0.000 0.452 0.000
11 0.000 0.000 0.198 0.000
12 0.000 0.000 0.468 0.000
13 0.650 -0.250 0.670 0.000
14 -2.000 5.000 0.000 0.000
15 2.300 6.089 0.000 0.000
16 0.000 0.000 0.000 0.000
17 0.000 0.000 0.300 0.000
18 -0.550 0.000 0.000 0.000
19 1.300 -0.200 0.200 0.000
20 1.711 -0.500 0.663 0.000
21 0.000 0.000 0.647 0.000
22 0.000 4.900 0.000 0.000
23 0.000 0.000 0.760 0.000
24 0.000 0.000 0.132 0.000
25 0.000 0.000 -0.100 0.000
26 0.000 0.000 0.464 0.000

Improper Coeffs

1 10.500 -1 2
2 2.500 -1 2
3 0.000 -1 2

Atoms

1 1 1 -0.4804    9.64263    4.67845    3.83021
2 1 2  0.7694    9.97863    4.59047    2.66070
3 1 3 -1.1201   11.06345    5.23157    2.07395
4 1 4 -0.3798    9.31893    3.82840    1.73881
5 1 5  0.1753   12.08548    6.09614    2.75528
6 1 6  0.5150   11.25704    4.90681    1.13587
7 1 5  0.0718    8.15829    2.96807    2.00836
8 1 5  0.0137   13.02061    6.89560    1.77459
9 1 7  0.1191   12.69041    5.43872    3.38849
10 1 7  0.1191   11.55624    6.78551    3.42033
11 1 4 -0.3719   14.23899    7.54352    2.30330
12 1 7  0.1133   12.43110    7.62038    1.20124
13 1 7  0.1133   13.40894    6.17615    1.04211
14 1 2  0.4429   14.25952    8.91814    2.36644
15 1 5 -0.1680   15.61253    9.56364    1.97847
16 1 1 -0.4278   13.24650    9.58385    2.55317
17 1 5 -0.0456   16.61413   10.01252    3.06491
18 1 7  0.1379   15.32142   10.45899    1.40500
19 1 7  0.1379   16.11133    8.91499    1.24945
20 1 8 -0.4064   17.89125   11.17299    2.32327
21 1 7  0.1218   16.11353   10.53919    3.88187
22 1 7  0.1218   17.14765    9.14648    3.46797
23 1 5 -0.0658   19.07322   11.41834    3.71468
24 1 5 -0.2267   20.23089   12.35350    3.33955
25 1 7  0.1100   18.54505   11.84380    4.57201
26 1 7  0.1100   19.49020   10.44781    3.99615
27 1 7  0.0970   20.95801   12.39891    4.16259
28 1 7  0.0970   19.89045   13.37950    3.16248
29 1 7  0.0970   20.77553   12.00902    2.45373
30 1 7  0.1633    8.00056    2.46849    1.04195
31 1 5 -0.0340    8.32621    1.85546    3.03429
32 1 5  0.0080    6.81048    3.60266    2.39854
33 1 7  0.1301    8.87565    1.00000    2.62851
34 1 7  0.1301    8.81944    2.17733    3.95502
35 1 4 -0.3589    6.98147    1.42939    3.34867
36 1 7  0.1665    6.88706    4.62902    2.76060
37 1 4 -0.3707    5.90745    3.60359    1.26069
38 1 5  0.0211    6.20027    2.64407    3.42926
39 1 5 -0.0331    4.86543    2.62507    1.48870
40 1 7  0.1479    6.28675    3.02936    4.45056
41 1 5  0.0698    4.75227    2.43618    2.99864
42 1 7  0.1303    5.16749    1.69132    1.00000
43 1 7  0.1303    3.94746    2.98576    1.01529
44 1 7  0.1653    4.35703    1.44949    3.27226
45 1 4 -0.3729    3.93096    3.47227    3.59230
46 1 2  0.7537    2.58939    3.36221    3.39249
47 1 3 -1.0960    1.96488    4.43463    3.95754
48 1 1 -0.4816    2.03940    2.45089    2.80022
49 1 5  0.1230    0.55070    4.67845    3.83021
50 1 6  0.5259    2.55334    5.09026    4.44865
51 1 7  0.0970    0.00000    3.95201    4.43391
52 1 7  0.0970    0.33877    5.68966    4.18563
53 1 7  0.0970    0.24998    4.58306    2.78293
54 1 1 -0.4804   11.04527   -0.78692    3.77543
55 1 2  0.7694   11.38127   -0.87490    2.60592
56 1 3 -1.1201   12.46609   -0.23380    2.01917
57 1 4 -0.3798   10.72157   -1.63697    1.68403
58 1 5  0.1753   13.48812    0.63077    2.70050
59 1 6  0.5150   12.65968   -0.55856    1.08109
60 1 5  0.0718    9.56093   -2.49730    1.95358
61 1 5  0.0137   14.42325    1.43023    1.71981
62 1 7  0.1191   14.09305   -0.02665    3.33371
63 1 7  0.1191   12.95888    1.32014    3.36555
64 1 4 -0.3719   15.64163    2.07815    2.24852
65 1 7  0.1133   13.83374    2.15501    1.14646
66 1 7  0.1133   14.81158    0.71078    0.98733
67 1 2  0.4429   15.66216    3.45277    2.31166
68 1 5 -0.1680   17.01517    4.09827    1.92369
69 1 1 -0.4278   14.64914    4.11848    2.49839
70 1 5 -0.0456   18.01677    4.54715    3.01013
71 1 7  0.1379   16.72406    4.99362    1.35022
72 1 7  0.1379   17.51397    3.44962    1.19467
73 1 8 -0.4064   19.29389    5.70762    2.26849
74 1 7  0.1218   17.51617    5.07382    3.82709
75 1 7  0.1218   18.55029    3.68111    3.41319
76 1 5 -0.0658   20.47586    5.95297    3.65990
77 1 5 -0.2267   21.63353    6.88813    3.28477
78 1 7  0.1100   19.94769    6.37843    4.51723
79 1 7  0.1100   20.89284    4.98244    3.94137
80 1 7  0.0970   22.36065    6.93354    4.10781
81 1 7  0.0970   21.29309    7.91413    3.10770
82 1 7  0.0970   22.17817    6.54365    2.39895
83 1 7  0.1633    9.40320   -2.99688    0.98717
84 1 5 -0.0340    9.72885   -3.60991    2.97951
85 1 5  0.0080    8.21312   -1.86271    2.34376
86 1 7  0.1301   10.27829   -4.46537    2.57373
87 1 7  0.1301   10.22208   -3.28804    3.90024
88 1 4 -0.3589    8.38411   -4.03598    3.29389
89 1 7  0.1665    8.28970   -0.83635    2.70582
90 1 4 -0.3707    7.31009   -1.86178    1.20591
91 1 5  0.0211    7.60291   -2.82130    3.37448
92 1 5 -0.0331    6.26807   -2.84030    1.43392
93 1 7  0.1479    7.68939   -2.43601    4.39578
94 1 5  0.0698    6.15491   -3.02919    2.94386
95 1 7  0.1303    6.57013   -3.77405    0.94522
96 1 7  0.1303    5.35010   -2.47961    0.96051
97 1 7  0.1653    5.75967   -4.01588    3.21748
98 1 4 -0.3729    5.33360   -1.99310    3.53752
99 1 2  0.7537    3.99203   -2.10316    3.33771
100 1 3 -1.0960    3.36752   -1.03074    3.90276
101 1 1 -0.4816    3.44204   -3.01448    2.74544
102 1 5  0.1230    1.95334   -0.78692    3.77543
103 1 6  0.5259    3.95598   -0.37511    4.39387
104 1 7  0.0970    1.40264   -1.51336    4.37913
105 1 7  0.0970    1.74141    0.22429    4.13085
106 1 7  0.0970    1.65262   -0.88231    2.72815

Bonds

1 1 2 1
2 2 3 2
3 3 4 2
4 4 5 3
5 5 6 3
6 6 7 4
7 7 8 5
8 8 9 5
9 8 10 5
10 6 11 8
11 8 12 8
12 8 13 8
13 3 14 11
14 9 15 14
15 1 16 14
16 7 17 15
17 8 18 15
18 8 19 15
19 10 20 17
20 8 21 17
21 8 22 17
22 10 23 20
23 7 24 23
24 8 25 23
25 8 26 23
26 8 27 24
27 8 28 24
28 8 29 24
29 8 30 7
30 7 31 7
31 7 32 7
32 8 33 31
33 8 34 31
34 6 35 31
35 8 36 32
36 6 37 32
37 7 38 32
38 6 39 37
39 8 40 38
40 7 41 38
41 8 42 39
42 8 43 39
43 8 44 41
44 6 45 41
45 3 46 45
46 2 47 46
47 1 48 46
48 4 49 47
49 5 50 47
50 8 51 49
51 8 52 49
52 8 53 49
53 6 38 35
54 7 41 39
55 1 55 54
56 2 56 55
57 3 57 55
58 4 58 56
59 5 59 56
60 6 60 57
61 7 61 58
62 8 62 58
63 8 63 58
64 6 64 61
65 8 65 61
66 8 66 61
67 3 67 64
68 9 68 67
69 1 69 67
70 7 70 68
71 8 71 68
72 8 72 68
73 10 73 70
74 8 74 70
75 8 75 70
76 10 76 73
77 7 77 76
78 8 78 76
79 8 79 76
80 8 80 77
81 8 81 77
82 8 82 77
83 8 83 60
84 7 84 60
85 7 85 60
86 8 86 84
87 8 87 84
88 6 88 84
89 8 89 85
90 6 90 85
91 7 91 85
92 6 92 90
93 8 93 91
94 7 94 91
95 8 95 92
96 8 96 92
97 8 97 94
98 6 98 94
99 3 99 98
100 2 100 99
101 1 101 99
102 4 102 100
103 5 103 100
104 8 104 102
105 8 105 102
106 8 106 102
107 6 91 88
108 7 94 92

Angles

1 1 1 2 3
2 2 1 2 4
3 3 2 3 5
4 4 2 3 6
5 5 2 4 7
6 6 3 5 8
7 7 3 5 9
8 7 3 5 10
9 8 5 8 11
10 9 5 8 12
11 9 5 8 13
12 5 8 11 14
13 10 11 14 15
14 2 11 14 16
15 11 14 15 17
16 7 14 15 18
17 7 14 15 19
18 12 15 17 20
19 9 15 17 21
20 9 15 17 22
21 13 17 20 23
22 12 20 23 24
23 7 20 23 25
24 7 20 23 26
25 9 23 24 27
26 9 23 24 28
27 9 23 24 29
28 7 4 7 30
29 8 4 7 31
30 8 4 7 32
31 9 7 31 33
32 9 7 31 34
33 8 7 31 35
34 9 7 32 36
35 8 7 32 37
36 14 7 32 38
37 15 32 37 39
38 9 32 38 40
39 14 32 38 41
40 7 37 39 42
41 7 37 39 43
42 9 38 41 44
43 8 38 41 45
44 5 41 45 46
45 10 45 46 47
46 2 45 46 48
47 3 46 47 49
48 4 46 47 50
49 7 47 49 51
50 7 47 49 52
51 7 47 49 53
52 15 31 35 38
53 7 20 17 22
54 16 28 24 29
55 16 27 24 29
56 16 27 24 28
57 9 17 15 19
58 1 47 46 48
59 9 36 32 38
60 9 24 23 26
61 9 30 7 32
62 8 32 38 35
63 7 33 31 35
64 9 41 39 42
65 9 41 39 43
66 16 51 49 52
67 16 25 23 26
68 16 42 39 43
69 16 18 15 19
70 8 39 41 45
71 16 52 49 53
72 17 15 14 16
73 14 38 41 39
74 9 40 38 41
75 14 31 7 32
76 7 36 32 37
77 7 34 31 35
78 18 5 3 6
79 7 20 17 21
80 9 24 23 25
81 9 39 41 44
82 7 11 8 12
83 7 35 38 40
84 16 9 5 10
85 8 37 39 41
86 9 8 5 10
87 8 35 38 41
88 9 8 5 9
89 16 51 49 53
90 7 11 8 13
91 7 44 41 45
92 16 21 17 22
93 10 3 2 4
94 8 37 32 38
95 9 30 7 31
96 18 49 47 50
97 16 33 31 34
98 9 17 15 18
99 16 12 8 13
100 1 54 55 56
101 2 54 55 57
102 3 55 56 58
103 4 55 56 59
104 5 55 57 60
105 6 56 58 61
106 7 56 58 62
107 7 56 58 63
108 8 58 61 64
109 9 58 61 65
110 9 58 61 66
111 5 61 64 67
112 10 64 67 68
113 2 64 67 69
114 11 67 68 70
115 7 67 68 71
116 7 67 68 72
117 12 68 70 73
118 9 68 70 74
119 9 68 70 75
120 13 70 73 76
121 12 73 76 77
122 7 73 76 78
123 7 73 76 79
124 9 76 77 80
125 9 76 77 81
126 9 76 77 82
127 7 57 60 83
128 8 57 60 84
129 8 57 60 85
130 9 60 84 86
131 9 60 84 87
132 8 60 84 88
133 9 60 85 89
134 8 60 85 90
135 14 60 85 91
136 15 85 90 92
137 9 85 91 93
138 14 85 91 94
139 7 90 92 95
140 7 90 92 96
141 9 91 94 97
142 8 91 94 98
143 5 94 98 99
144 10 98 99 100
145 2 98 99 101
146 3 99 100 102
147 4 99 100 103
148 7 100 102 104
149 7 100 102 105
150 7 100 102 106
151 15 84 88 91
152 7 73 70 75
153 16 81 77 82
154 16 80 77 82
155 16 80 77 81
156 9 70 68 72
157 1 100 99 101
158 9 89 85 91
159 9 77 76 79
160 9 83 60 85
161 8 85 91 88
162 7 86 84 88
163 9 94 92 95
164 9 94 92 96
165 16 104 102 105
166 16 78 76 79
167 16 95 92 96
168 16 71 68 72
169 8 92 94 98
170 16 105 102 106
171 17 68 67 69
172 14 91 94 92
173 9 93 91 94
174 14 84 60 85
175 7 89 85 90
176 7 87 84 88
177 18 58 56 59
178 7 73 70 74
179 9 77 76 78
180 9 92 94 97
181 7 64 61 65
182 7 88 91 93
183 16 62 58 63
184 8 90 92 94
185 9 61 58 63
186 8 88 91 94
187 9 61 58 62
188 16 104 102 106
189 7 64 61 66
190 7 97 94 98
191 16 74 70 75
192 10 56 55 57
193 8 90 85 91
194 9 83 60 84
195 18 102 100 103
196 16 86 84 87
197 9 70 68 71
198 16 65 61 66

Dihedrals

1 1 5 3 2 1
2 2 7 4 2 1
3 3 8 5 3 2
4 4 11 8 5 3
5 5 14 11 8 5
6 6 15 14 11 8
7 7 17 15 14 11
8 8 20 17 15 14
9 9 23 20 17 15
10 9 24 23 20 17
11 10 27 24 23 20
12 11 30 7 4 2
13 12 33 31 7 4
14 12 36 32 7 4
15 13 39 37 32 7
16 5 46 45 41 38
17 14 47 46 45 41
18 15 49 47 46 45
19 16 51 49 47 46
20 17 33 31 7 30
21 10 29 24 23 20
22 16 53 49 47 50
23 2 16 14 11 8
24 18 45 41 39 37
25 16 8 5 3 6
26 16 51 49 47 50
27 19 39 41 38 32
28 18 37 32 38 35
29 17 44 41 38 40
30 16 10 5 3 2
31 16 17 15 14 16
32 20 37 32 7 31
33 1 49 47 46 48
34 21 25 23 20 17
35 17 38 32 7 30
36 16 53 49 47 46
37 21 26 23 20 17
38 17 27 24 23 25
39 22 50 47 46 45
40 23 38 35 31 34
41 12 11 8 5 10
42 17 28 24 23 25
43 20 45 41 38 32
44 17 12 8 5 9
45 17 33 31 7 32
46 15 5 3 2 4
47 24 19 15 14 11
48 12 36 32 38 35
49 13 32 38 35 31
50 16 19 15 14 16
51 16 52 49 47 50
52 18 35 31 7 4
53 11 14 11 8 13
54 13 41 38 35 31
55 23 40 38 35 31
56 22 6 3 2 4
57 23 38 35 31 33
58 23 39 37 32 36
59 11 14 11 8 12
60 25 21 17 15 14
61 21 23 20 17 22
62 5 46 45 41 39
63 20 41 38 32 37
64 19 41 38 32 7
65 19 38 32 7 31
66 16 9 5 3 6
67 20 35 31 7 32
68 17 21 17 15 19
69 17 22 17 15 18
70 16 9 5 3 2
71 17 13 8 5 9
72 17 12 8 5 10
73 20 38 41 39 37
74 20 35 38 32 7
75 2 48 46 45 41
76 5 31 7 4 2
77 17 13 8 5 10
78 17 27 24 23 26
79 23 42 39 37 32
80 12 34 31 7 4
81 17 34 31 7 32
82 14 7 4 2 3
83 17 42 39 41 38
84 17 44 41 39 42
85 10 20 17 15 19
86 17 21 17 15 18
87 12 45 41 38 40
88 13 38 35 31 7
89 17 41 38 32 36
90 20 38 32 7 4
91 20 39 41 38 35
92 23 43 39 37 32
93 13 39 37 32 38
94 16 10 5 3 6
95 12 35 31 7 30
96 26 13 8 5 3
97 17 44 41 39 43
98 12 45 41 39 42
99 17 29 24 23 26
100 16 18 15 14 16
101 21 23 20 17 21
102 17 40 38 32 7
103 17 29 24 23 25
104 22 50 47 46 48
105 17 28 24 23 26
106 10 28 24 23 20
107 17 36 32 7 30
108 24 18 15 14 11
109 11 46 45 41 44
110 12 45 41 39 43
111 12 40 38 32 37
112 12 44 41 38 35
113 17 40 38 41 39
114 26 12 8 5 3
115 5 32 7 4 2
116 22 6 3 2 1
117 16 52 49 47 46
118 17 34 31 7 30
119 17 44 41 38 32
120 17 40 38 32 36
121 17 22 17 15 19
122 18 45 41 38 35
123 17 36 32 7 31
124 12 37 32 7 30
125 12 11 8 5 9
126 18 37 32 7 4
127 13 41 39 37 32
128 10 20 17 15 18
129 25 22 17 15 14
130 17 43 39 41 38
131 12 44 41 39 37
132 1 58 56 55 54
133 2 60 57 55 54
134 3 61 58 56 55
135 4 64 61 58 56
136 5 67 64 61 58
137 6 68 67 64 61
138 7 70 68 67 64
139 8 73 70 68 67
140 9 76 73 70 68
141 9 77 76 73 70
142 10 80 77 76 73
143 11 83 60 57 55
144 12 86 84 60 57
145 12 89 85 60 57
146 13 92 90 85 60
147 5 99 98 94 91
148 14 100 99 98 94
149 15 102 100 99 98
150 16 104 102 100 99
151 17 86 84 60 83
152 10 82 77 76 73
153 16 106 102 100 103
154 2 69 67 64 61
155 18 98 94 92 90
156 16 61 58 56 59
157 16 104 102 100 103
158 19 92 94 91 85
159 18 90 85 91 88
160 17 97 94 91 93
161 16 63 58 56 55
162 16 70 68 67 69
163 20 90 85 60 84
164 1 102 100 99 101
165 21 78 76 73 70
166 17 91 85 60 83
167 16 106 102 100 99
168 21 79 76 73 70
169 17 80 77 76 78
170 22 103 100 99 98
171 23 91 88 84 87
172 12 64 61 58 63
173 17 81 77 76 78
174 20 98 94 91 85
175 17 65 61 58 62
176 17 86 84 60 85
177 15 58 56 55 57
178 24 72 68 67 64
179 12 89 85 91 88
180 13 85 91 88 84
181 16 72 68 67 69
182 16 105 102 100 103
183 18 88 84 60 57
184 11 67 64 61 66
185 13 94 91 88 84
186 23 93 91 88 84
187 22 59 56 55 57
188 23 91 88 84 86
189 23 92 90 85 89
190 11 67 64 61 65
191 25 74 70 68 67
192 21 76 73 70 75
193 5 99 98 94 92
194 20 94 91 85 90
195 19 94 91 85 60
196 19 91 85 60 84
197 16 62 58 56 59
198 20 88 84 60 85
199 17 74 70 68 72
200 17 75 70 68 71
201 16 62 58 56 55
202 17 66 61 58 62
203 17 65 61 58 63
204 20 91 94 92 90
205 20 88 91 85 60
206 2 101 99 98 94
207 5 84 60 57 55
208 17 66 61 58 63
209 17 80 77 76 79
210 23 95 92 90 85
211 12 87 84 60 57
212 17 87 84 60 85
213 14 60 57 55 56
214 17 95 92 94 91
215 17 97 94 92 95
216 10 73 70 68 72
217 17 74 70 68 71
218 12 98 94 91 93
219 13 91 88 84 60
220 17 94 91 85 89
221 20 91 85 60 57
222 20 92 94 91 88
223 23 96 92 90 85
224 13 92 90 85 91
225 16 63 58 56 59
226 12 88 84 60 83
227 26 66 61 58 56
228 17 97 94 92 96
229 12 98 94 92 95
230 17 82 77 76 79
231 16 71 68 67 69
232 21 76 73 70 74
233 17 93 91 85 60
234 17 82 77 76 78
235 22 103 100 99 101
236 17 81 77 76 79
237 10 81 77 76 73
238 17 89 85 60 83
239 24 71 68 67 64
240 11 99 98 94 97
241 12 98 94 92 96
242 12 93 91 85 90
243 12 97 94 91 88
244 17 93 91 94 92
245 26 65 61 58 56
246 5 85 60 57 55
247 22 59 56 55 54
248 16 105 102 100 99
249 17 87 84 60 83
250 17 97 94 91 85
251 17 93 91 85 89
252 17 75 70 68 72
253 18 98 94 91 88
254 17 89 85 60 84
255 12 90 85 60 83
256 12 64 61 58 62
257 18 90 85 60 57
258 13 94 92 90 85
259 10 73 70 68 71
260 25 75 70 68 67
261 17 96 92 94 91
262 12 97 94 92 90

Impropers

1 1 2 1 3 4
2 2 3 2 5 6
3 3 5 9 3 8
4 3 5 10 3 8
5 3 8 11 12 5
6 3 8 5 11 13
7 1 14 11 15 16
8 3 15 17 18 14
9 3 15 17 19 14
10 3 17 20 21 15
11 3 17 20 22 15
12 3 23 25 20 24
13 3 23 26 20 24
14 3 24 27 28 23
15 3 24 27 29 23
16 3 7 4 31 30
17 3 7 4 30 32
18 3 31 33 34 7
19 3 31 33 35 7
20 3 32 36 37 7
21 3 32 36 38 7
22 3 38 35 32 40
23 3 38 41 35 32
24 3 39 41 42 37
25 3 39 41 43 37
26 3 41 44 38 39
27 3 41 45 38 39
28 1 46 45 47 48
29 2 47 49 50 46
30 3 49 51 52 47
31 3 49 51 53 47
32 1 55 54 56 57
33 2 56 55 58 59
34 3 58 62 56 61
35 3 58 63 56 61
36 3 61 64 65 58
37 3 61 58 64 66
38 1 67 64 68 69
39 3 68 70 71 67
40 3 68 70 72 67
41 3 70 73 74 68
42 3 70 73 75 68
43 3 76 78 73 77
44 3 76 79 73 77
45 3 77 80 81 76
46 3 77 80 82 76
47 3 60 57 84 83
48 3 60 57 83 85
49 3 84 86 87 60
50 3 84 86 88 60
51 3 85 89 90 60
52 3 85 89 91 60
53 3 91 88 85 93
54 3 91 94 88 85
55 3 92 94 95 90
56 3 92 94 96 90
57 3 94 97 91 92
58 3 94 98 91 92
59 1 99 98 100 101
60 2 100 102 103 99
61 3 102 104 105 100
62 3 102 104 106 100

