#Polymer: CCOH

37 atoms
36 bonds
49 angles
36 dihedrals
12 impropers

4 atom types
4 bond types
5 angle types
4 dihedral types
1 improper types

   0.00000   20.35800 xlo xhi
   0.00000    4.97897 ylo yhi
   0.00000    5.48871 zlo zhi

Masses

1 12.011
2 1.008
3 15.999
4 1.008

Pair Coeffs

1 0.066 3.5000000
2 0.030 2.5000000
3 0.170 3.1200000
4 0.000 0.0000000

Bond Coeffs

1 268.0000 1.5290
2 340.0000 1.0900
3 320.0000 1.4100
4 553.0000 0.9450

Angle Coeffs

1 37.500 110.700
2 50.000 109.500
3 55.000 108.500
4 33.000 107.800
5 35.000 109.500

Dihedral Coeffs

1 0.000 0.000 0.468 0.000
2 -0.356 -0.174 0.492 0.000
3 0.000 0.000 0.352 0.000
4 0.000 0.000 0.300 0.000

Improper Coeffs

1 0.000 -1 2

Atoms

1 1 1 -0.2893    0.90490    3.04019    0.98046
2 1 1  0.1096    2.14610    2.17415    1.00841
3 1 2  0.0915    0.00000    2.42639    0.99715
4 1 2  0.0915    0.89114    3.66602    0.08201
5 1 2  0.0915    0.88802    3.71805    1.84030
6 1 3 -0.6883    3.29373    3.00956    0.98127
7 1 2  0.0939    2.17175    1.51181    0.13795
8 1 2  0.0939    2.17191    1.56933    1.91979
9 1 1 -0.2893    4.97650    3.04019    0.98046
10 1 1  0.1096    6.21770    2.17415    1.00841
11 1 2  0.0915    4.96274    3.66602    0.08201
12 1 2  0.0915    4.95962    3.71805    1.84030
13 1 3 -0.6883    7.36533    3.00956    0.98127
14 1 2  0.0939    6.24335    1.51181    0.13795
15 1 2  0.0939    6.24351    1.56933    1.91979
16 1 1 -0.2893    9.04810    3.04019    0.98046
17 1 1  0.1096   10.28930    2.17415    1.00841
18 1 2  0.0915    9.03434    3.66602    0.08201
19 1 2  0.0915    9.03122    3.71805    1.84030
20 1 3 -0.6883   11.43693    3.00956    0.98127
21 1 2  0.0939   10.31495    1.51181    0.13795
22 1 2  0.0939   10.31511    1.56933    1.91979
23 1 1 -0.2893   13.11970    3.04019    0.98046
24 1 1  0.1096   14.36090    2.17415    1.00841
25 1 2  0.0915   13.10594    3.66602    0.08201
26 1 2  0.0915   13.10282    3.71805    1.84030
27 1 3 -0.6883   15.50853    3.00956    0.98127
28 1 2  0.0939   14.38655    1.51181    0.13795
29 1 2  0.0939   14.38671    1.56933    1.91979
30 1 1 -0.2893   17.19130    3.04019    0.98046
31 1 1  0.1096   18.43250    2.17415    1.00841
32 1 2  0.0915   17.17754    3.66602    0.08201
33 1 2  0.0915   17.17442    3.71805    1.84030
34 1 3 -0.6883   19.58013    3.00956    0.98127
35 1 2  0.0939   18.45815    1.51181    0.13795
36 1 2  0.0939   18.45831    1.56933    1.91979
37 1 4  0.4058   20.35800    2.42639    0.99715

Bonds

1 1 2 1
2 2 3 1
3 2 4 1
4 2 5 1
5 3 6 2
6 2 7 2
7 2 8 2
8 1 10 9
9 2 11 9
10 2 12 9
11 3 13 10
12 2 14 10
13 2 15 10
14 3 9 6
15 1 17 16
16 2 18 16
17 2 19 16
18 3 20 17
19 2 21 17
20 2 22 17
21 3 16 13
22 1 24 23
23 2 25 23
24 2 26 23
25 3 27 24
26 2 28 24
27 2 29 24
28 3 23 20
29 1 31 30
30 2 32 30
31 2 33 30
32 3 34 31
33 2 35 31
34 2 36 31
35 4 37 34
36 3 30 27

Angles

1 1 2 1 3
2 1 2 1 4
3 1 2 1 5
4 2 1 2 6
5 1 1 2 7
6 1 1 2 8
7 4 3 1 4
8 4 3 1 5
9 5 6 2 7
10 5 6 2 8
11 4 7 2 8
12 4 4 1 5
13 1 10 9 11
14 1 10 9 12
15 2 9 10 13
16 1 9 10 14
17 1 9 10 15
18 5 13 10 14
19 5 13 10 15
20 4 14 10 15
21 4 11 9 12
22 1 17 16 18
23 1 17 16 19
24 2 16 17 20
25 1 16 17 21
26 1 16 17 22
27 5 20 17 21
28 5 20 17 22
29 4 21 17 22
30 4 18 16 19
31 1 24 23 25
32 1 24 23 26
33 2 23 24 27
34 1 23 24 28
35 1 23 24 29
36 5 27 24 28
37 5 27 24 29
38 4 28 24 29
39 4 25 23 26
40 1 31 30 32
41 1 31 30 33
42 2 30 31 34
43 1 30 31 35
44 1 30 31 36
45 3 31 35 37
46 5 34 31 35
47 5 34 31 36
48 4 35 31 36
49 4 32 30 33

Dihedrals

1 1 6 2 1 3
2 4 8 2 1 3
3 4 7 2 1 5
4 1 6 2 1 5
5 4 8 2 1 4
6 4 8 2 1 5
7 4 7 2 1 3
8 1 6 2 1 4
9 4 7 2 1 4
10 4 14 10 9 12
11 1 13 10 9 12
12 4 15 10 9 11
13 4 15 10 9 12
14 1 13 10 9 11
15 4 14 10 9 11
16 4 21 17 16 19
17 1 20 17 16 19
18 4 22 17 16 19
19 4 22 17 16 18
20 1 20 17 16 18
21 4 21 17 16 18
22 4 28 24 23 26
23 1 27 24 23 26
24 4 29 24 23 26
25 4 29 24 23 25
26 1 27 24 23 25
27 4 28 24 23 25
28 2 37 34 31 30
29 3 37 34 31 35
30 3 37 34 31 36
31 4 35 31 30 33
32 1 34 31 30 33
33 4 36 31 30 33
34 4 36 31 30 32
35 1 34 31 30 32
36 4 35 31 30 32

Impropers

1 1 1 2 3 4
2 1 1 2 3 5
3 1 2 1 6 7
4 1 2 1 6 8
5 1 10 9 13 14
6 1 10 9 13 15
7 1 17 16 20 21
8 1 17 16 20 22
9 1 24 23 27 28
10 1 24 23 27 29
11 1 31 30 34 35
12 1 31 30 34 36

