#Polymer: CCOH

9 atoms
8 bonds
13 angles
12 dihedrals
4 impropers

4 atom types
4 bond types
5 angle types
4 dihedral types
1 improper types

-9.29324 -4.57166 xlo xhi
-1.72888 3.25009 ylo yhi
-2.04102 3.44769 zlo zhi

Masses

1 12.011
2 1.008
3 15.999
4 1.008

Pair Coeffs

1 0.066 3.5000000
2 0.030 2.5000000
3 0.170 3.1200000
4 0.000 0.0000000

Bond Coeffs

1 268.0000 1.5290
2 340.0000 1.0900
3 320.0000 1.4100
4 553.0000 0.9450

Angle Coeffs

1 37.500 110.700
2 50.000 109.500
3 55.000 108.500
4 33.000 107.800
5 35.000 109.500

Dihedral Coeffs

1 0.000 0.000 0.468 0.000
2 -0.356 -0.174 0.492 0.000
3 0.000 0.000 0.352 0.000
4 0.000 0.000 0.300 0.000

Improper Coeffs

1 0.000 -1 2

Atoms

1 1 1 -0.2893 -6.94821584 1.31130517 -1.06055707
2 1 1 0.1096 -5.70701940 0.44526995 -1.03260569
3 1 2 0.0915 -7.85312000 0.69751000 -1.04387000
4 1 2 0.0915 -6.96198424 1.93714448 -1.95901324
5 1 2 0.0915 -6.96509810 1.98917442 -0.20071769
6 1 3 -0.6883 -4.55939129 1.28068339 -1.05975265
7 1 2 0.0939 -5.68136789 -0.21706815 -1.90306947
8 1 2 0.0939 -5.68121342 -0.15954550 -0.12123459
9 1 4 0.4058 -3.78151974 0.69751000 -1.04387000

Bonds

1 1 2 1
2 2 3 1
3 2 4 1
4 2 5 1
5 3 6 2
6 2 7 2
7 2 8 2
8 4 9 6

Angles

1 1 2 1 3
2 1 2 1 4
3 1 2 1 5
4 2 1 2 6
5 1 1 2 7
6 1 1 2 8
7 3 2 6 9
8 4 3 1 4
9 4 3 1 5
10 5 6 2 7
11 5 6 2 8
12 4 7 2 8
13 4 4 1 5

Dihedrals

1 1 6 2 1 3
2 2 9 6 2 1
3 3 9 6 2 7
4 3 9 6 2 8
5 4 8 2 1 3
6 4 7 2 1 5
7 1 6 2 1 5
8 4 8 2 1 4
9 4 8 2 1 5
10 4 7 2 1 3
11 1 6 2 1 4
12 4 7 2 1 4

Impropers

1 1 1 2 3 4
2 1 1 2 3 5
3 1 2 1 6 7
4 1 2 1 6 8

