#Polymer: CCOH

9 atoms
8 bonds
13 angles
12 dihedrals
4 impropers

4 atom types
4 bond types
5 angle types
4 dihedral types
1 improper types

-9.29324 -4.57166 xlo xhi
-1.72888 3.25009 ylo yhi
-2.04102 3.44769 zlo zhi

Masses

1 12.011
2 1.008
3 15.999
4 1.008

Pair Coeffs

1 0.066 3.5000000
2 0.030 2.5000000
3 0.170 3.1200000
4 0.000 0.0000000

Bond Coeffs

1 268.0000 1.5290
2 340.0000 1.0900
3 320.0000 1.4100
4 553.0000 0.9450

Angle Coeffs

1 37.500 110.700
2 50.000 109.500
3 55.000 108.500
4 33.000 107.800
5 35.000 109.500

Dihedral Coeffs

1 0.000 0.000 0.468 0.000
2 -0.356 -0.174 0.492 0.000
3 0.000 0.000 0.352 0.000
4 0.000 0.000 0.300 0.000

Improper Coeffs

1 0.000 -1 2

Atoms

1 1 1 -0.2893 -7.6667000 0.3032000 -0.0538000
2 1 1 0.1096 -8.1992013 1.2239626 1.0244726
3 1 2 0.0915 -8.0199380 0.6138339 -1.0410236
4 1 2 0.0915 -7.9849863 -0.7288807 0.1259937
5 1 2 0.0915 -6.5716611 0.3032000 -0.0538000
6 1 3 -0.6883 -7.7235101 0.8077938 2.2962676
7 1 2 0.0939 -9.2932390 1.2188835 1.0400528
8 1 2 0.0939 -7.8612838 2.2500928 0.8527207
9 1 4 0.4058 -8.0458539 -0.0971245 2.4476915

Bonds

1 1 2 1
2 2 3 1
3 2 4 1
4 2 5 1
5 3 6 2
6 2 7 2
7 2 8 2
8 4 9 6

Angles

1 1 2 1 3
2 1 2 1 4
3 1 2 1 5
4 2 1 2 6
5 1 1 2 7
6 1 1 2 8
7 3 2 6 9
8 4 3 1 4
9 4 3 1 5
10 5 6 2 7
11 5 6 2 8
12 4 7 2 8
13 4 4 1 5

Dihedrals

1 1 6 2 1 3
2 2 9 6 2 1
3 3 9 6 2 7
4 3 9 6 2 8
5 4 8 2 1 3
6 4 7 2 1 5
7 1 6 2 1 5
8 4 8 2 1 4
9 4 8 2 1 5
10 4 7 2 1 3
11 1 6 2 1 4
12 4 7 2 1 4

Impropers

1 1 1 2 3 4
2 1 1 2 3 5
3 1 2 1 6 7
4 1 2 1 6 8

