#Polymer: CCOH

7 atoms
7 bonds
9 angles
6 dihedrals
2 impropers

4 atom types
4 bond types
5 angle types
4 dihedral types
1 improper types

  -7.85312   -3.78152 xlo xhi
  -1.72888    3.25009 ylo yhi
  -2.04102    3.44769 zlo zhi

Masses

1 12.011
2 1.008
3 15.999
4 1.008

Pair Coeffs

1 0.066 3.5000000
2 0.030 2.5000000
3 0.170 3.1200000
4 0.000 0.0000000

Bond Coeffs

1 268.0000 1.5290
2 340.0000 1.0900
3 320.0000 1.4100
4 553.0000 0.9450

Angle Coeffs

1 37.500 110.700
2 50.000 109.500
3 55.000 108.500
4 33.000 107.800
5 35.000 109.500

Dihedral Coeffs

1 0.000 0.000 0.468 0.000
2 -0.356 -0.174 0.492 0.000
3 0.000 0.000 0.352 0.000
4 0.000 0.000 0.300 0.000

Improper Coeffs

1 0.000 -1 2

Atoms

1 1 1 -0.2893   -6.94822    1.31131   -1.06056
2 1 1  0.1096   -5.70702    0.44527   -1.03261
3 1 2  0.0915   -6.96198    1.93714   -1.95901
4 1 2  0.0915   -6.96510    1.98917   -0.20072
5 1 3 -0.6883   -4.55939    1.28068   -1.05975
6 1 2  0.0939   -5.68137   -0.21707   -1.90307
7 1 2  0.0939   -5.68121   -0.15955   -0.12123

Bonds

1 1 2 1
2 2 3 1
3 2 4 1
4 3 5 2
5 2 6 2
6 2 7 2
7 3 5 1

Angles

1 1 2 1 3
2 1 2 1 4
3 2 1 2 5
4 1 1 2 6
5 1 1 2 7
6 5 5 2 6
7 5 5 2 7
8 4 6 2 7
9 4 3 1 4

Dihedrals

1 4 6 2 1 4
2 1 5 2 1 4
3 4 7 2 1 3
4 4 7 2 1 4
5 1 5 2 1 3
6 4 6 2 1 3

Impropers

1 1 2 1 5 6
2 1 2 1 5 7

